
                                 *****************
                                 * O   R   C   A *
                                 *****************

                                            #,                                       
                                            ###                                      
                                            ####                                     
                                            #####                                    
                                            ######                                   
                                           ########,                                 
                                     ,,################,,,,,                         
                               ,,#################################,,                 
                          ,,##########################################,,             
                       ,#########################################, ''#####,          
                    ,#############################################,,   '####,        
                  ,##################################################,,,,####,       
                ,###########''''           ''''###############################       
              ,#####''   ,,,,##########,,,,          '''####'''          '####       
            ,##' ,,,,###########################,,,                        '##       
           ' ,,###''''                  '''############,,,                           
         ,,##''                                '''############,,,,        ,,,,,,###''
      ,#''                                            '''#######################'''  
     '                                                          ''''####''''         
             ,#######,   #######,   ,#######,      ##                                
            ,#'     '#,  ##    ##  ,#'     '#,    #''#        ,####,    ,#,          
            ##       ##  ##   ,#'  ##            #'  '#       #'       ,# #          
            ##       ##  #######   ##           ,######,      #####,      #          
            '#,     ,#'  ##    ##  '#,     ,#' ,#      #,     #,   #      #          
             '#######'   ##     ##  '#######'  #'      '#     '####' #    #          



                #########################################################
                #                        -***-                          #
                #          Department of theory and spectroscopy        #
                #                                                       #
                #                      Frank Neese                      #
                #                                                       #
                #     Directorship, Architecture, Infrastructure        #
                #                    SHARK, DRIVERS                     #
                #        Core code/Algorithms in most modules           #
                #                                                       #
                #        Max Planck Institute fuer Kohlenforschung      #
                #                Kaiser Wilhelm Platz 1                 #
                #                 D-45470 Muelheim/Ruhr                 #
                #                      Germany                          #
                #                                                       #
                #                  All rights reserved                  #
                #                        -***-                          #
                #########################################################


                         Program Version 6.1.0-f.0  -   RELEASE   -


 With contributions from (in alphabetic order):
[Max-Planck-Institut fuer Kohlenforschung]                               
  Daniel Aravena         : Magnetic Suceptibility                        
  Michael Atanasov       : Ab Initio Ligand Field Theory (pilot matlab implementation)
  Alexander A. Auer      : GIAO ZORA, VPT2 properties, NMR spectrum      
  Ute Becker             : All parallelization in ORCA, NUMFREQ, NUMCALC 
  Giovanni Bistoni       : ED, misc. LED, open-shell LED, HFLD           
  Dmytro Bykov           : pre 5.0 version of the SCF Hessian            
  Marcos Casanova-Páez   : Triplet and SCS-CIS(D). UHF-(DLPNO)-IP/EA/STEOM-CCSD. UHF-CVS-IP/STEOM-CCSD   
  Vijay G. Chilkuri      : MRCI spin determinant printing, contributions to CSF-ICE 
  Pauline Colinet        : FMM embedding                                 
  Dipayan Datta          : RHF DLPNO-CCSD density                        
  Achintya Kumar Dutta   : EOM-CC, STEOM-CC                              
  Nicolas Foglia         : Exact transition moments, OPA infrastructure, MCD improvements    
  Dmitry Ganyushin       : Spin-Orbit,Spin-Spin,Magnetic field MRCI      
  Miquel Garcia-Rates    : C-PCM and meta-GGA Hessian, CCSD/C-PCM, Gaussian charge scheme 
  Tiago L. C. Gouveia    : GS-ROHF, GS-ROCIS                             
  Yang Guo               : DLPNO-NEVPT2, F12-NEVPT2, CIM, IAO-localization        
  Andreas Hansen         : Spin unrestricted coupled pair/coupled cluster methods 
  Ingolf Harden          : AUTO-CI MPn and infrastructure                
  Benjamin Helmich-Paris : MC-RPA, TRAH-(SCF,CASSCF), AVAS, COSX integrals, SCF dyn. polar., MC-PDFT, srDFT 
  Lee Huntington         : MR-EOM, pCC                                   
  Robert Izsak           : Overlap fitted RIJCOSX, COSX-SCS-MP3, EOM     
  Riya Kayal             : Wick's Theorem for AUTO-CI, AUTO-CI UHF-CCSDT 
  Emily Kempfer          : AUTO-CI RHF CISDT and CCSDT, approximate NEVPT4
  Christian Kollmar      : KDIIS, OOCD, Brueckner-CCSD(T), CCSD density, CASPT2, CASPT2-K, improved NEVPT2 
  Axel Koslowski         : Symmetry handling                             
  Simone Kossmann        : meta-GGA functionals, TD-DFT gradient, OOMP2, (MP2 Hessian; deprecated post 5.0) 
  Lucas Lang             : DCDCAS, Hyperfine gauge corrections, ICE-SOC+SSC
  Marvin Lechner         : AUTO-CI (C++ implementation), FIC-MRCC        
  Spencer Leger          : CASSCF response                               
  Dagmar Lenk            : GEPOL surface, SMD, ORCA-2-JSON               
  Dimitrios Liakos       : Extrapolation schemes; Compound Job, Property file
  Dimitrios Manganas     : Further ROCIS development; embedding schemes. LFT, Crystal Embedding 
  Dimitrios Pantazis     : SARC Basis sets                               
  Anastasios Papadopoulos: AUTO-CI, single reference methods and gradients 
  Taras Petrenko         : pre 6.0 DFT Hessian and TD-DFT gradient,  ECA, NRVS 
  Petra Pikulova         : Analytic Raman intensities                    
  Peter Pinski           : DLPNO-MP2, DLPNO-MP2 Gradient                 
  Shashank Vittal Rao    : ES-AILFT, MagRelax                            
  Christoph Reimann      : Effective Core Potentials                     
  Marius Retegan         : Local ZFS, SOC                                
  Christoph Riplinger    : Optimizer, TS searches, QM/MM, DLPNO-CCSD(T), (RO)-DLPNO pert. Triples 
  Michael Roemelt        : Original ROCIS implementation, recursive CI coupling coefficients
  Masaaki Saitow         : Open-shell DLPNO-CCSD energy and density      
  Barbara Sandhoefer     : DKH picture change effects                    
  Yorick L. A. Schmerwitz: GMF and freeze-and-release deltaSCF, NEB S-IDPP initial path                    
  Kantharuban Sivalingam : CASSCF convergence/infrastructure, NEVPT2, NEVPT3, NEVPT4(SD), FIC-MRCI and CEPA variants
  Bernardo de Souza      : ESD, SOC TD-DFT                               
  Georgi L. Stoychev     : AutoAux, RI-MP2 NMR, DLPNO-MP2 response, X2C  
  Van Anh Tran           : RI-MP2 g-tensors                              
  Willem Van den Heuvel  : Paramagnetic NMR                              
  Zikuan Wang            : NOTCH, Electric field optimization            
  Frank Wennmohs         : Technical directorship and infrastructure     
  Hang Xu                : AUTO-CI-Response properties                   
                                                                         
[FACCTs GmbH]                                                            
  Markus Bursch, Nicolas Foglia, Miquel Garcia-Rates, Ingolf Harden, Hagen Neugebauer, Anastasios Papadopoulos, 
  Christoph Riplinger, Bernardo de Souza, Georgi L. Stoychev                                                    
                                                                 
  APM, various basis sets, CI-OPT, improved COSX, DLPNO-Multilevel,           
  DOCKER, DRACO, updates on ESD, Fragmentator, GOAT, IRC, LR-CPCM, L-BFGS, MBIS, meta-GGA TD-DFT gradient, ML-optimized integration grids, 
  MM, NACMEs, nearIR, NEB, NEB-TS, NL-DFT gradient (VV10), 2- and 3-layer-ONIOM, interface openCOSMO-RS, QMMM,   
  Crystal-QMMM, RESP, rigid body optimization, SF, symmetry and pop. for TD-DFT, various functionals, SOLVATOR                                   
                                                                         
[Other institutions]                                                     
  V. Asgeirsson          : NEB                                           
  Christoph Bannwarth    : sTDA-DFT, sTD-DFT, PBEh-3c, B97-3c, D3        
  Giovanni Bistoni       : ETS/NOCV, ADLD/ADEX, COVALED                  
  Martin Brehm           : Molecular dynamics                            
  Ronald Cardenas        : ETS/NOCV                                      
  Martina Colucci        : COVALED                                       
  Sebastian Ehlert       : rSCAN, r2SCAN, r2SCAN-3c, D4, dhf basis sets  
  Marvin Friede          : D4 for Fr, Ra, Ac-Lr                          
  Lars Goerigk           : TD-DFT with DH, B97 family of functionals     
  Stefan Grimme          : VdW corrections, initial TS optimization, DFT functionals, gCP, sTDA/sTD-DF 
  Waldemar Hujo          : DFT-NL                                        
  H. Jonsson             : NEB                                           
  Holger Kruse           : gCP                                           
  Marcel Mueller         : wB97X-3c, vDZP basis set                      
  Hagen Neugebauer       : wr2SCAN, Native XTB                           
  Gianluca Regni         : ADLD/ADEX                                     
  Tobias Risthaus        : pre 6.0 range-separated hybrid DFT and stability analysis
  Lukas Wittmann         : regularized MP2, r2SCAN double-hybrids, wr2SCAN        
                                                                         
We gratefully acknowledge several colleagues who have allowed us to      
interface, adapt or use parts of their codes:                            
  Ed Valeev, F. Pavosevic, A. Kumar             : LibInt (2-el integral package), F12 methods 
  Garnet Chan, S. Sharma, J. Yang, R. Olivares  : DMRG                   
  Ulf Ekstrom                                   : XCFun DFT Library      
  Mihaly Kallay                                 : mrcc  (arbitrary order and MRCC methods)
  Frank Weinhold                                : gennbo (NPA and NBO analysis)           
  Simon Mueller                                 : openCOSMO-RS                            
  Christopher J. Cramer and Donald G. Truhlar   : smd solvation model                     
  S Lehtola, MJT Oliveira, MAL Marques          : LibXC Library                           
  Liviu Ungur et al                             : ANISO software                          


 Your calculation uses the libint2 library for the computation of 2-el integrals
 For citations please refer to: http://libint.valeyev.net

 Your ORCA version has been built with support for libXC version: 7.0.0
 For citations please refer to: https://libxc.gitlab.io

 This ORCA versions uses:
   CBLAS   interface :  Fast vector & matrix operations
   LAPACKE interface :  Fast linear algebra routines
   SCALAPACK package :  Parallel linear algebra routines
   Shared memory     :  Shared parallel matrices
   BLAS/LAPACK       :  OpenBLAS 0.3.29  USE64BITINT DYNAMIC_ARCH NO_AFFINITY Haswell SINGLE_THREADED
        Core in use  :  Haswell
   Copyright (c) 2011-2014, The OpenBLAS Project


  ***********************************
  * Starting time: Mon Sep  8 11:16:04 2025
  * Host name:     debian
  * Process ID:    30106
  * Working dir.:  /home/jonathan/moleculas_orca_project/runs/methane/intermediates
  ***********************************

Warning: RI is on but no J-basis has been assigned. Assigning Def2/J (nothing to worry about!)
================================================================================

----- Orbital basis set information -----
Your calculation utilizes the basis: def2-SVP
   F. Weigend and R. Ahlrichs, Phys. Chem. Chem. Phys. 7, 3297 (2005).

----- AuxJ basis set information -----
Your calculation utilizes the auxiliary basis: def2/J
   H-Rn: F. Weigend, Phys. Chem. Chem. Phys. 8, 1057 (2006).
   Fr-Lr: K. Eichkorn, F. Weigend, O. Treutler, R. Ahlrichs; Theor. Chem. Acc. 97, 119 (1997).

================================================================================
                                        WARNINGS
                       Please study these warnings very carefully!
================================================================================


WARNING: Geometry Optimization
  ===> : Switching off AutoStart
         For restart on a previous wavefunction, please use MOREAD

================================================================================
                                       INPUT FILE
================================================================================
NAME = /home/jonathan/moleculas_orca_project/runs/methane/inputs/methane.inp
|  1> ! B3LYP def2-SVP Opt Freq TightSCF
|  2> 
|  3> * xyz 0 1
|  4> C    0.000000    0.000000    0.000000
|  5> H    0.629118    0.629118    0.629118
|  6> H   -0.629118   -0.629118    0.629118
|  7> H   -0.629118    0.629118   -0.629118
|  8> H    0.629118   -0.629118   -0.629118
|  9> *
| 10> 
| 11>                          ****END OF INPUT****
================================================================================

                       *****************************
                       * Geometry Optimization Run *
                       *****************************

Geometry optimization settings:
Update method            Update   .... BFGS
Choice of coordinates    CoordSys .... (2022) Redundant Internals
Initial Hessian          InHess   .... Almloef's Model
Max. no of cycles        MaxIter  .... 50

Convergence Tolerances:
Energy Change            TolE     ....  5.0000e-06 Eh
Max. Gradient            TolMAXG  ....  3.0000e-04 Eh/bohr
RMS Gradient             TolRMSG  ....  1.0000e-04 Eh/bohr
Max. Displacement        TolMAXD  ....  4.0000e-03 bohr
RMS Displacement         TolRMSD  ....  2.0000e-03 bohr
Strict Convergence                .... False

------------------------------------------------------------------------------
                        ORCA OPTIMIZATION COORDINATE SETUP
------------------------------------------------------------------------------

The optimization will be done in redundant internal coordinates (2022)
Making redundant internal coordinates   ...  (2022 redundants) done
Evaluating the initial hessian          ...  (Almloef) done
Evaluating the coordinates              ...  done
Calculating the B-matrix                .... done
Calculating the G-matrix                .... done
The number of degrees of freedom        ....   10

    -----------------------------------------------------------------
                    Redundant Internal Coordinates


    -----------------------------------------------------------------
         Definition                    Initial Value    Approx d2E/dq
    -----------------------------------------------------------------
      1. B(H   1,C   0)                  1.0897         0.360544   
      2. B(H   2,C   0)                  1.0897         0.360544   
      3. B(H   3,C   0)                  1.0897         0.360544   
      4. B(H   4,C   0)                  1.0897         0.360544   
      5. A(H   1,C   0,H   3)          109.4712         0.290952   
      6. A(H   2,C   0,H   3)          109.4712         0.290952   
      7. A(H   1,C   0,H   4)          109.4712         0.290952   
      8. A(H   2,C   0,H   4)          109.4712         0.290952   
      9. A(H   3,C   0,H   4)          109.4712         0.290952   
     10. A(H   1,C   0,H   2)          109.4712         0.290952   
    -----------------------------------------------------------------

Number of atoms                         .... 5
Number of degrees of freedom            .... 10


         *************************************************************
         *                GEOMETRY OPTIMIZATION CYCLE   1            *
         *************************************************************
---------------------------------
CARTESIAN COORDINATES (ANGSTROEM)
---------------------------------
  C      0.000000    0.000000    0.000000
  H      0.629118    0.629118    0.629118
  H     -0.629118   -0.629118    0.629118
  H     -0.629118    0.629118   -0.629118
  H      0.629118   -0.629118   -0.629118

----------------------------
CARTESIAN COORDINATES (A.U.)
----------------------------
  NO LB      ZA    FRAG     MASS         X           Y           Z
   0 C     6.0000    0    12.011    0.000000    0.000000    0.000000
   1 H     1.0000    0     1.008    1.188861    1.188861    1.188861
   2 H     1.0000    0     1.008   -1.188861   -1.188861    1.188861
   3 H     1.0000    0     1.008   -1.188861    1.188861   -1.188861
   4 H     1.0000    0     1.008    1.188861   -1.188861   -1.188861

--------------------------------
INTERNAL COORDINATES (ANGSTROEM)
--------------------------------
 C      0   0   0     0.000000000000     0.00000000     0.00000000
 H      1   0   0     1.089664339956     0.00000000     0.00000000
 H      1   2   0     1.089664339956   109.47122063     0.00000000
 H      1   2   3     1.089664339956   109.47122063   120.00000000
 H      1   2   3     1.089664339956   109.47122063   240.00000000

---------------------------
INTERNAL COORDINATES (A.U.)
---------------------------
 C      0   0   0     0.000000000000     0.00000000     0.00000000
 H      1   0   0     2.059167180417     0.00000000     0.00000000
 H      1   2   0     2.059167180417   109.47122063     0.00000000
 H      1   2   3     2.059167180417   109.47122063   120.00000000
 H      1   2   3     2.059167180417   109.47122063   240.00000000

---------------------
BASIS SET INFORMATION
---------------------
There are 2 groups of distinct atoms

 Group   1 Type C   : 7s4p1d contracted to 3s2p1d pattern {511/31/1}
 Group   2 Type H   : 4s1p contracted to 2s1p pattern {31/1}

Atom   0C    basis set group =>   1
Atom   1H    basis set group =>   2
Atom   2H    basis set group =>   2
Atom   3H    basis set group =>   2
Atom   4H    basis set group =>   2
---------------------------------
AUXILIARY/J BASIS SET INFORMATION
---------------------------------
There are 2 groups of distinct atoms

 Group   1 Type C   : 12s5p4d2f1g contracted to 6s4p3d1f1g pattern {711111/2111/211/2/1}
 Group   2 Type H   : 5s2p1d contracted to 3s1p1d pattern {311/2/1}

Atom   0C    basis set group =>   1
Atom   1H    basis set group =>   2
Atom   2H    basis set group =>   2
Atom   3H    basis set group =>   2
Atom   4H    basis set group =>   2
------------------------------------------------------------------------------
                             ORCA STARTUP CALCULATIONS
                           -- RI-GTO INTEGRALS CHOSEN --
------------------------------------------------------------------------------
------------------------------------------------------------------------------
                   ___                                                        
                  /   \      - P O W E R E D   B Y -                         
                 /     \                                                     
                 |  |  |   _    _      __       _____    __    __             
                 |  |  |  | |  | |    /  \     |  _  \  |  |  /  |          
                  \  \/   | |  | |   /    \    | | | |  |  | /  /          
                 / \  \   | |__| |  /  /\  \   | |_| |  |  |/  /          
                |  |  |   |  __  | /  /__\  \  |    /   |      \           
                |  |  |   | |  | | |   __   |  |    \   |  |\   \          
                \     /   | |  | | |  |  |  |  | |\  \  |  | \   \       
                 \___/    |_|  |_| |__|  |__|  |_| \__\ |__|  \__/        
                                                                              
                      - O R C A' S   B I G   F R I E N D -                    
                                      &                                       
                       - I N T E G R A L  F E E D E R -                       
                                                                              
 v1 FN, 2020, v2 2021, v3 2022-2024                                           
------------------------------------------------------------------------------


----------------------
SHARK INTEGRAL PACKAGE
----------------------

Number of atoms                             ...      5
Number of basis functions                   ...     34
Number of shells                            ...     18
Maximum angular momentum                    ...      2
Integral batch strategy                     ... SHARK/LIBINT Hybrid
RI-J (if used) integral strategy            ... SPLIT-RIJ (Revised 2003 algorithm where possible)
Printlevel                                  ...      1
Contraction scheme used                     ... SEGMENTED contraction
Prescreening option                         ... SCHWARTZ
   Thresh                                   ... 2.500e-11
   Tcut                                     ... 2.500e-12
   Tpresel                                  ... 2.500e-12 
Coulomb Range Separation                    ... NOT USED
Exchange Range Separation                   ... NOT USED
Multipole approximations                    ... NOT USED
Finite Nucleus Model                        ... NOT USED
CABS basis                                  ... NOT available
Auxiliary Coulomb fitting basis             ... AVAILABLE
   # of basis functions in Aux-J            ...     93
   # of shells in Aux-J                     ...     35
   Maximum angular momentum in Aux-J        ...      4
Auxiliary J/K fitting basis                 ... NOT available
Auxiliary Correlation fitting basis         ... NOT available
Auxiliary 'external' fitting basis          ... NOT available

Checking pre-screening integrals            ... done (  0.0 sec) Dimension = 18
   => SHARK Basis and OBASIS are compatible. Storing Pre-screening
Shell pair information
Shell pair cut-off parameter TPreSel        ...   2.5e-12
Total number of shell pairs                 ...       171
Shell pairs after pre-screening             ...       171
Total number of primitive shell pairs       ...       553
Primitive shell pairs kept                  ...       535
          la=0 lb=0:     66 shell pairs
          la=1 lb=0:     66 shell pairs
          la=1 lb=1:     21 shell pairs
          la=2 lb=0:     11 shell pairs
          la=2 lb=1:      6 shell pairs
          la=2 lb=2:      1 shell pairs

Checking whether 4 symmetric matrices of dimension 34 fit in memory
:Max Core in MB      =   4096.00
 MB in use           =      3.37
 MB left             =   4092.63
 MB needed           =      0.02
 Data fit in memory  = YES
Calculating RI/J V-Matrix + Cholesky decomp.... done (  0.0 sec)
Calculating Nuclear repulsion               ... done (  0.0 sec) ENN=     13.439527823364 Eh

Diagonalization of the overlap matrix:
Smallest eigenvalue                        ... 1.390e-02
Time for diagonalization                   ...    0.000 sec
Threshold for overlap eigenvalues          ... 1.000e-07
Number of eigenvalues below threshold      ... 0
Time for construction of square roots      ...    0.000 sec
Total time needed                          ...    0.001 sec

-------------------
DFT GRID GENERATION
-------------------

General Integration Accuracy     IntAcc      ... 4.388
Radial Grid Type                 RadialGrid  ... OptM3 with GC (2021)
Angular Grid (max. ang.)         AngularGrid ... 4 (Lebedev-302)
Angular grid pruning method      GridPruning ... 4 (adaptive)
Weight generation scheme         WeightScheme... mBecke (2022)
Basis function cutoff            BFCut       ... 1.0000e-11
Integration weight cutoff        WCut        ... 1.0000e-14
Partially contracted basis set               ... off
Rotationally invariant grid construction     ... off
Angular grids for H and He will be reduced by one unit

Total number of grid points                  ...    19244
Total number of batches                      ...      304
Average number of points per batch           ...       63
Average number of grid points per atom       ...     3849

--------------------
COSX GRID GENERATION
--------------------

GRIDX 1
-------
General Integration Accuracy     IntAcc      ... 3.816
Radial Grid Type                 RadialGrid  ... OptM3 with GC (2021)
Angular Grid (max. ang.)         AngularGrid ... 1 (Lebedev-50)
Angular grid pruning method      GridPruning ... 4 (adaptive)
Weight generation scheme         WeightScheme... mBecke (2022)
Basis function cutoff            BFCut       ... 1.0000e-11
Integration weight cutoff        WCut        ... 1.0000e-14
Partially contracted basis set               ... on
Rotationally invariant grid construction     ... off
Angular grids for H and He will be reduced by one unit

Total number of grid points                  ...     2472
Total number of batches                      ...       22
Average number of points per batch           ...      112
Average number of grid points per atom       ...      494
UseSFitting                                  ... on

GRIDX 2
-------
General Integration Accuracy     IntAcc      ... 4.020
Radial Grid Type                 RadialGrid  ... OptM3 with GC (2021)
Angular Grid (max. ang.)         AngularGrid ... 2 (Lebedev-110)
Angular grid pruning method      GridPruning ... 4 (adaptive)
Weight generation scheme         WeightScheme... mBecke (2022)
Basis function cutoff            BFCut       ... 1.0000e-11
Integration weight cutoff        WCut        ... 1.0000e-14
Partially contracted basis set               ... on
Rotationally invariant grid construction     ... off
Angular grids for H and He will be reduced by one unit

Total number of grid points                  ...     5008
Total number of batches                      ...       42
Average number of points per batch           ...      119
Average number of grid points per atom       ...     1002
UseSFitting                                  ... on

GRIDX 3
-------
General Integration Accuracy     IntAcc      ... 4.338
Radial Grid Type                 RadialGrid  ... OptM3 with GC (2021)
Angular Grid (max. ang.)         AngularGrid ... 3 (Lebedev-194)
Angular grid pruning method      GridPruning ... 4 (adaptive)
Weight generation scheme         WeightScheme... mBecke (2022)
Basis function cutoff            BFCut       ... 1.0000e-11
Integration weight cutoff        WCut        ... 1.0000e-14
Partially contracted basis set               ... on
Rotationally invariant grid construction     ... off
Angular grids for H and He will be reduced by one unit

Total number of grid points                  ...    11132
Total number of batches                      ...       90
Average number of points per batch           ...      123
Average number of grid points per atom       ...     2226
UseSFitting                                  ... on
Grids setup in   0.1 sec
Initializing property integral containers    ... done (  0.0 sec)

SHARK setup successfully completed in   0.1 seconds

Maximum memory used throughout the entire STARTUP-calculation: 9.3 MB
-------------------------------------------------------------------------------
                                 ORCA GUESS
                   Start orbitals & Density for SCF / CASSCF
-------------------------------------------------------------------------------

------------
SCF SETTINGS
------------
Hamiltonian:
 Density Functional     Method          .... DFT(GTOs)
 Exchange Functional    Exchange        .... B88
   X-Alpha parameter    XAlpha          ....  0.666667
   Becke's b parameter  XBeta           ....  0.004200
 Correlation Functional Correlation     .... LYP
 LDA part of GGA corr.  LDAOpt          .... VWN-5
 Gradients option       PostSCFGGA      .... off
 Hybrid DFT is turned on
   Fraction HF Exchange ScalHFX         ....  0.200000
   Scaling of DF-GGA-X  ScalDFX         ....  0.720000
   Scaling of DF-GGA-C  ScalDFC         ....  0.810000
   Scaling of DF-LDA-C  ScalLDAC        ....  1.000000
   Perturbative correction              ....  0.000000
   NL short-range parameter             ....  4.800000
 RI-approximation to the Coulomb term is turned on
   Number of AuxJ basis functions       .... 93
   RIJ-COSX (HFX calculated with COS-X)).... on


General Settings:
 Integral files         IntName         .... /home/jonathan/moleculas_orca_project/runs/methane/inputs/methane
 Hartree-Fock type      HFTyp           .... RHF
 Total Charge           Charge          ....    0
 Multiplicity           Mult            ....    1
 Number of Electrons    NEL             ....   10
 Basis Dimension        Dim             ....   34
 Nuclear Repulsion      ENuc            ....     13.4395278234 Eh

Convergence Acceleration:
 AO-DIIS                CNVDIIS         .... on
   Start iteration      DIISMaxIt       ....    12
   Startup error        DIISStart       ....  0.200000
   # of expansion vecs  DIISMaxEq       ....     5
   Bias factor          DIISBfac        ....   1.050
   Max. coefficient     DIISMaxC        ....  10.000
 MO-DIIS                CNVKDIIS        .... off
 Trust-Rad. Augm. Hess. CNVTRAH         .... auto
   Auto Start mean grad. ratio tolernc. ....  1.125000
   Auto Start start iteration           ....    50
   Auto Start num. interpolation iter.  ....    10
   Max. Number of Micro iterations      ....    24
   Max. Number of Macro iterations      .... Maxiter - #DIIS iter
   Number of Davidson start vectors     ....     2
   Converg. threshold    (grad. norm)   ....   1.000e-05
   Grad. Scal. Fac. for Micro threshold ....   0.100
   Minimum threshold for Micro iter.    ....   1.000e-02
   NR start threshold (gradient norm)   ....   1.000e-04
   Initial trust radius                 ....   0.400
   Minimum AH scaling param. (alpha)    ....   1.000
   Maximum AH scaling param. (alpha)    .... 1000.000
   Quad. conv. algorithm                .... NR
   White noise on init. David. guess    .... on
   Maximum white noise                  ....   0.010
   Pseudo random numbers                .... off
   Inactive MOs                         .... canonical
   Orbital update algorithm             .... Taylor
   Preconditioner                       .... Diag
   Full preconditioner red. dimension   ....   250
 SOSCF                 CNVSOSCF           .... on
   Start iteration     SOSCFMaxIt         ....   150
   Startup grad/error  SOSCFStart         ....  0.003300
   Hessian update      SOSCFHessUp        .... L-BFGS
   Autom. constraints  SOSCFAutoConstrain .... off
 Level Shifting         CNVShift        .... on
   Level shift para.    LevelShift      ....    0.2500
   Turn off err/grad.   ShiftErr        ....    0.0010
 Zerner damping         CNVZerner       .... off
 Static damping         CNVDamp         .... on
   Fraction old density DampFac         ....    0.7000
   Max. Damping (<1)    DampMax         ....    0.9800
   Min. Damping (>=0)   DampMin         ....    0.0000
   Turn off err/grad.   DampErr         ....    0.1000

SCF Procedure:
 Maximum # iterations   MaxIter         ....   125
 SCF integral mode      SCFMode         .... Direct
   Integral package                     .... SHARK and LIBINT hybrid scheme
 Reset frequency        DirectResetFreq ....    20
 Integral Threshold     Thresh          ....  2.500e-11 Eh
 Primitive CutOff       TCut            ....  2.500e-12 Eh

Convergence Tolerance:
 Convergence Check Mode ConvCheckMode   .... Total+1el-Energy
 Convergence forced     ConvForced      .... 0
 Energy Change          TolE            ....  1.000e-08 Eh
 1-El. energy change                    ....  1.000e-05 Eh
 Orbital Gradient       TolG            ....  1.000e-05
 Orbital Rotation angle TolX            ....  1.000e-05
 DIIS Error             TolErr          ....  5.000e-07

------------------------------
INITIAL GUESS: MODEL POTENTIAL
------------------------------
Loading Hartree-Fock densities                     ... done
Calculating cut-offs                               ... done
Initializing the effective Hamiltonian             ... done
Setting up the integral package (SHARK)            ... done
Starting the Coulomb interaction                   ... done (   0.0 sec)
Making the grid                                    ... done (   0.0 sec)
Mapping shells                                     ... done
Starting the XC term evaluation                    ... done (   0.0 sec)
  promolecular density results
     # of electrons  =     10.002413443
     EX              =     -6.308267103
     EC              =     -0.288559895
     EX+EC           =     -6.596826998
Transforming the Hamiltonian                       ... done (   0.0 sec)
Diagonalizing the Hamiltonian                      ... done (   0.0 sec)
Back transforming the eigenvectors                 ... done (   0.0 sec)
Now organizing SCF variables                       ... done
                      ------------------
                      INITIAL GUESS DONE (   0.0 sec)
                      ------------------
             **** ENERGY FILE WAS UPDATED (/home/jonathan/moleculas_orca_project/runs/methane/inputs/methane.en.tmp) ****
Finished Guess after   0.0 sec
Maximum memory used throughout the entire GUESS-calculation: 5.6 MB

-------------------------------------------------------------------------------------------
                                      ORCA LEAN-SCF
                              memory conserving SCF solver
-------------------------------------------------------------------------------------------

----------------------------------------D-I-I-S--------------------------------------------
Iteration    Energy (Eh)           Delta-E    RMSDP     MaxDP     DIISErr   Damp  Time(sec)
-------------------------------------------------------------------------------------------
               ***  Starting incremental Fock matrix formation  ***
    1    -40.3771208013373695     0.00e+00  7.37e-03  8.76e-02  2.00e-01  0.700   0.1
    2    -40.4122237187617372    -3.51e-02  5.22e-03  5.37e-02  1.04e-01  0.700   0.1
                               ***Turning on AO-DIIS***
    3    -40.4264614983909070    -1.42e-02  2.05e-03  1.43e-02  3.87e-02  0.700   0.1
    4    -40.4344235444897180    -7.96e-03  3.20e-03  1.90e-02  1.82e-02  0.000   0.1
    5    -40.4515137935587461    -1.71e-02  6.26e-04  3.70e-03  8.46e-03  0.000   0.0
                              *** Initializing SOSCF ***
---------------------------------------S-O-S-C-F--------------------------------------
Iteration    Energy (Eh)           Delta-E    RMSDP     MaxDP     MaxGrad    Time(sec)
--------------------------------------------------------------------------------------
    6    -40.4516592860531716    -1.45e-04  2.30e-04  1.40e-03  2.31e-03     0.0
               *** Restarting incremental Fock matrix formation ***
    7    -40.4517147912992101    -5.55e-05  1.55e-04  9.31e-04  3.26e-04     0.1
    8    -40.4517150021418246    -2.11e-07  5.36e-05  6.34e-04  3.52e-04     0.1
    9    -40.4517158402612438    -8.38e-07  2.65e-06  1.88e-05  7.84e-06     0.1
   10    -40.4517158366663381     3.59e-09  3.03e-07  1.68e-06  7.45e-07     0.1
                 **** Energy Check signals convergence ****

               *****************************************************
               *                     SUCCESS                       *
               *           SCF CONVERGED AFTER  10 CYCLES          *
               *****************************************************

Recomputing exchange energy using gridx3       ... done (    0.065 sec)
Old exchange energy                            :     -1.314769021 Eh
New exchange energy                            :     -1.314736756 Eh
Exchange energy change after final integration :      0.000032264 Eh
Total energy after final integration           :    -40.451683573 Eh
             **** ENERGY FILE WAS UPDATED (/home/jonathan/moleculas_orca_project/runs/methane/inputs/methane.en.tmp) ****

----------------
TOTAL SCF ENERGY
----------------

Total Energy       :        -40.45168357270661 Eh           -1100.74627 eV

Components:
Nuclear Repulsion  :         13.43952782336440 Eh             365.70814 eV
Electronic Energy  :        -53.89124366014899 Eh           -1466.45529 eV
One Electron Energy:        -79.76863742596858 Eh           -2170.61498 eV
Two Electron Energy:         25.87739376581959 Eh             704.15968 eV

Virial components:
Potential Energy   :        -80.33009090762897 Eh           -2185.89290 eV
Kinetic Energy     :         39.87840733492237 Eh            1085.14663 eV
Virial Ratio       :          2.01437560514816

DFT components:
N(Alpha)           :        5.000016817883 electrons
N(Beta)            :        5.000016817883 electrons
N(Total)           :       10.000033635766 electrons
E(X)               :       -5.193756134189 Eh       
E(C)               :       -0.351199231540 Eh       
E(XC)              :       -5.544955365730 Eh       

---------------
SCF CONVERGENCE
---------------

  Last Energy change         ...   -3.5949e-09  Tolerance :   1.0000e-08
  Last MAX-Density change    ...    1.6769e-06  Tolerance :   1.0000e-07
  Last RMS-Density change    ...    3.0271e-07  Tolerance :   5.0000e-09
  Last DIIS Error            ...    2.3093e-03  Tolerance :   5.0000e-07
  Last Orbital Gradient      ...    7.4454e-07  Tolerance :   1.0000e-05
  Last Orbital Rotation      ...    5.6949e-07  Tolerance :   1.0000e-05


----------------
ORBITAL ENERGIES
----------------

  NO   OCC          E(Eh)            E(eV) 
   0   2.0000     -10.168875      -276.7092 
   1   2.0000      -0.683246       -18.5921 
   2   2.0000      -0.388375       -10.5682 
   3   2.0000      -0.388375       -10.5682 
   4   2.0000      -0.388375       -10.5682 
   5   0.0000       0.075288         2.0487 
   6   0.0000       0.147438         4.0120 
   7   0.0000       0.147438         4.0120 
   8   0.0000       0.147438         4.0120 
   9   0.0000       0.419914        11.4264 
  10   0.0000       0.419914        11.4264 
  11   0.0000       0.419914        11.4264 
  12   0.0000       0.659250        17.9391 
  13   0.0000       0.684826        18.6351 
  14   0.0000       0.684826        18.6351 
  15   0.0000       0.684826        18.6351 
*Only the first 10 virtual orbitals were printed.

                    ********************************
                    * MULLIKEN POPULATION ANALYSIS *
                    ********************************

-----------------------
MULLIKEN ATOMIC CHARGES
-----------------------
   0 C :   -0.104096
   1 H :    0.026024
   2 H :    0.026024
   3 H :    0.026024
   4 H :    0.026024
Sum of atomic charges:   -0.0000000

--------------------------------
MULLIKEN REDUCED ORBITAL CHARGES
--------------------------------
  0 C s       :     3.037213  s :     3.037213
      pz      :     1.014876  p :     3.044627
      px      :     1.014876
      py      :     1.014876
      dz2     :     0.000000  d :     0.022256
      dxz     :     0.007419
      dyz     :     0.007419
      dx2y2   :     0.000000
      dxy     :     0.007419

  1 H s       :     0.949740  s :     0.949740
      pz      :     0.008079  p :     0.024237
      px      :     0.008079
      py      :     0.008079

  2 H s       :     0.949740  s :     0.949740
      pz      :     0.008079  p :     0.024237
      px      :     0.008079
      py      :     0.008079

  3 H s       :     0.949740  s :     0.949740
      pz      :     0.008079  p :     0.024237
      px      :     0.008079
      py      :     0.008079

  4 H s       :     0.949740  s :     0.949740
      pz      :     0.008079  p :     0.024237
      px      :     0.008079
      py      :     0.008079



                     *******************************
                     * LOEWDIN POPULATION ANALYSIS *
                     *******************************

----------------------
LOEWDIN ATOMIC CHARGES
----------------------
   0 C :   -0.104540
   1 H :    0.026135
   2 H :    0.026135
   3 H :    0.026135
   4 H :    0.026135

-------------------------------
LOEWDIN REDUCED ORBITAL CHARGES
-------------------------------
  0 C s       :     2.836807  s :     2.836807
      pz      :     1.070625  p :     3.211874
      px      :     1.070625
      py      :     1.070625
      dz2     :     0.000000  d :     0.055859
      dxz     :     0.018620
      dyz     :     0.018620
      dx2y2   :     0.000000
      dxy     :     0.018620

  1 H s       :     0.908820  s :     0.908820
      pz      :     0.021682  p :     0.065045
      px      :     0.021682
      py      :     0.021682

  2 H s       :     0.908820  s :     0.908820
      pz      :     0.021682  p :     0.065045
      px      :     0.021682
      py      :     0.021682

  3 H s       :     0.908820  s :     0.908820
      pz      :     0.021682  p :     0.065045
      px      :     0.021682
      py      :     0.021682

  4 H s       :     0.908820  s :     0.908820
      pz      :     0.021682  p :     0.065045
      px      :     0.021682
      py      :     0.021682



                      *****************************
                      * MAYER POPULATION ANALYSIS *
                      *****************************

  NA   - Mulliken gross atomic population
  ZA   - Total nuclear charge
  QA   - Mulliken gross atomic charge
  VA   - Mayer's total valence
  BVA  - Mayer's bonded valence
  FA   - Mayer's free valence

  ATOM       NA         ZA         QA         VA         BVA        FA
  0 C      6.1041     6.0000    -0.1041     3.9959     3.9959    -0.0000
  1 H      0.9740     1.0000     0.0260     0.9926     0.9926    -0.0000
  2 H      0.9740     1.0000     0.0260     0.9926     0.9926     0.0000
  3 H      0.9740     1.0000     0.0260     0.9926     0.9926     0.0000
  4 H      0.9740     1.0000     0.0260     0.9926     0.9926     0.0000

  Mayer bond orders larger than 0.100000
B(  0-C ,  1-H ) :   0.9990 B(  0-C ,  2-H ) :   0.9990 B(  0-C ,  3-H ) :   0.9990 
B(  0-C ,  4-H ) :   0.9990 

-------
TIMINGS
-------

Total SCF time: 0 days 0 hours 0 min 0 sec 

Total time                  ....       0.783 sec
Sum of individual times     ....       0.715 sec  ( 91.3%)

SCF preparation             ....       0.041 sec  (  5.2%)
Fock matrix formation       ....       0.666 sec  ( 85.1%)
  Startup                   ....       0.000 sec  (  0.1% of F)
  Split-RI-J                ....       0.027 sec  (  4.1% of F)
  Chain of spheres X        ....       0.420 sec  ( 63.2% of F)
  XC integration            ....       0.265 sec  ( 39.8% of F)
    XC Preparation          ....       0.000 sec  (  0.0% of XC)
    Basis function eval.    ....       0.110 sec  ( 41.4% of XC)
    Density eval.           ....       0.041 sec  ( 15.4% of XC)
    XC-Functional eval.     ....       0.051 sec  ( 19.4% of XC)
    XC-Potential eval.      ....       0.036 sec  ( 13.7% of XC)
Diagonalization             ....       0.000 sec  (  0.0%)
Density matrix formation    ....       0.001 sec  (  0.2%)
Total Energy calculation    ....       0.000 sec  (  0.1%)
Population analysis         ....       0.001 sec  (  0.1%)
Orbital Transformation      ....       0.001 sec  (  0.1%)
Orbital Orthonormalization  ....       0.000 sec  (  0.0%)
DIIS solution               ....       0.003 sec  (  0.4%)
SOSCF solution              ....       0.001 sec  (  0.2%)
Finished LeanSCF after   0.8 sec

Maximum memory used throughout the entire LEANSCF-calculation: 5.6 MB

------------------------------------------------------------------------------
                         ORCA PROPERTY INTEGRAL CALCULATIONS
------------------------------------------------------------------------------

GBWName                                   ... /home/jonathan/moleculas_orca_project/runs/methane/inputs/methane.gbw
Number of atoms                           ...      5
Number of basis functions                 ...     34
Max core memory                           ...   4096 MB

Dipole integrals                          ... YES
Quadrupole integrals                      ...  NO
Linear momentum integrals                 ...  NO
Angular momentum integrals                ...  NO
Higher moments length integrals           ...  NO
Higher moments velocity integrals         ...  NO
Kinetic energy integrals                  ...  NO
GIAO right hand sides                     ...  NO
GIAO dipole derivative integrals          ...  NO
SOC integrals                             ...  NO
EPR diamagnetic integrals (GIAO)          ...  NO
EPR gauge integrals                       ...  NO
Field gradient integrals                  ...  NO (   0 nuclei)
Spin-dipole/Fermi contact integrals       ...  NO (   0 nuclei)
Contact density integrals                 ...  NO (   0 nuclei)
Nucleus-orbit integrals                   ...  NO (   0 nuclei)
Geometric perturbations                   ...  NO (   5 nuclei)

Choice of electric origin   ... Center of mass
Position of electric origin ... (  0.0000,  0.0000,  0.0000) 
Choice of magnetic origin   ... GIAO
Position of magnetic origin ... (  0.0000,  0.0000,  0.0000) 

Calculating integrals                     ... Electric Dipole (Length)     done (  0.0 sec)

Property integrals calculated in   0.0 sec

Maximum memory used throughout the entire PROPINT-calculation: 5.7 MB

-------------------------   --------------------
FINAL SINGLE POINT ENERGY       -40.451683572707
-------------------------   --------------------

------------------------------------------------------------------------------
                         ORCA SCF GRADIENT CALCULATION
------------------------------------------------------------------------------

Nuc. rep. gradient        (SHARK) ... done (  0.0 sec)
HCore & Overlap gradient  (SHARK) ... done (  0.0 sec)
Split-RIJ-J gradient      (SHARK) ... done (  0.0 sec)
done (  0.3 sec)
XC gradient                       ... done (  0.1 sec)

------------------
CARTESIAN GRADIENT
------------------

   1   C   :   -0.000000006    0.000000018    0.000000014
   2   H   :   -0.003913563   -0.003913578   -0.003913579
   3   H   :    0.003913560    0.003913561   -0.003913551
   4   H   :    0.003913566   -0.003913584    0.003913566
   5   H   :   -0.003913556    0.003913584    0.003913550

Difference to translation invariance:
           :   -0.0000000000    0.0000000000   -0.0000000000

Difference to rotation invariance:
           :    0.0000000068    0.0000000378    0.0000000359

Norm of the Cartesian gradient     ...    0.0135569918
RMS gradient                       ...    0.0035004002
MAX gradient                       ...    0.0039135838

-------
TIMINGS
-------

Total SCF gradient time     ....        0.468 sec

Densities                   ....       0.000 sec  (  0.0%)
One electron gradient       ....       0.004 sec  (  0.9%)
RI-J Coulomb gradient       ....       0.045 sec  (  9.6%)
COSX gradient               ....       0.328 sec  ( 70.1%)
XC gradient                 ....       0.091 sec  ( 19.3%)

Maximum memory used throughout the entire SCFGRAD-calculation: 7.0 MB
------------------------------------------------------------------------------
                         ORCA GEOMETRY RELAXATION STEP
------------------------------------------------------------------------------

Reading the OPT-File                    .... done
Getting information on internals        .... done
Copying old internal coords+grads       .... done
Making the new internal coordinates     .... (2022 redundants) done
Validating the new internal coordinates .... (2022 redundants) done
Calculating the B-matrix                .... done
Calculating the G,G- and P matrices     .... done
Transforming gradient to internals      .... done
Projecting the internal gradient        .... done
Number of atoms                         ....   5
Number of internal coordinates          ....  10
Current Energy                          ....   -40.451683573 Eh
Current gradient norm                   ....     0.013556992 Eh/bohr
Maximum allowed component of the step   ....  0.300
Current trust radius                    ....  0.300
Evaluating the initial hessian          ....  (Almloef) done
Projecting the Hessian                  .... done
Forming the augmented Hessian           .... done
Diagonalizing the augmented Hessian     .... done
Last element of RFO vector              ....  0.999295802
Lowest eigenvalues of augmented Hessian:
 -0.000509044  0.290952118  0.290952118  0.290952118  0.290952118
Length of the computed step             ....  0.037548444
The final length of the internal step   ....  0.037548444
Converting the step to Cartesian space:
 Initial RMS(Int)=    0.0118738607
Transforming coordinates:
 Iter   0:  RMS(Cart)=    0.0096949667 RMS(Int)=    0.0118738607
done
Storing new coordinates                 .... done

                                .--------------------.
          ----------------------|Geometry convergence|-------------------------
          Item                value                   Tolerance       Converged
          ---------------------------------------------------------------------
          RMS gradient        0.0042870972            0.0001000000      NO
          MAX gradient        0.0067785083            0.0003000000      NO
          RMS step            0.0118738607            0.0020000000      NO
          MAX step            0.0187742567            0.0040000000      NO
          -------------------------------------------------------------------------
          ........................................................
          Max(Bonds)      0.0099      Max(Angles)    0.00
          Max(Dihed)        0.00      Max(Improp)    0.00
          ---------------------------------------------------------------------

The optimization has not yet converged - more geometry cycles are needed


    ---------------------------------------------------------------------------
                         Redundant Internal Coordinates
                            (Angstroem and degrees)

        Definition                    Value    dE/dq     Step     New-Value
    ----------------------------------------------------------------------------
     1. B(H   1,C   0)                1.0897 -0.006779  0.0099    1.0996   
     2. B(H   2,C   0)                1.0897 -0.006778  0.0099    1.0996   
     3. B(H   3,C   0)                1.0897 -0.006779  0.0099    1.0996   
     4. B(H   4,C   0)                1.0897 -0.006778  0.0099    1.0996   
     5. A(H   1,C   0,H   3)          109.47  0.000000   -0.00    109.47   
     6. A(H   2,C   0,H   3)          109.47  0.000000   -0.00    109.47   
     7. A(H   1,C   0,H   4)          109.47 -0.000000    0.00    109.47   
     8. A(H   2,C   0,H   4)          109.47  0.000000   -0.00    109.47   
     9. A(H   3,C   0,H   4)          109.47 -0.000000    0.00    109.47   
    10. A(H   1,C   0,H   2)          109.47  0.000000   -0.00    109.47   
    ----------------------------------------------------------------------------

Geometry step timings:
Preparation and reading OPT file:      0.000 s ( 5.102 %)
Internal coordinates            :      0.000 s ( 3.469 %)
B/P matrices and projection     :      0.000 s (22.857 %)
Hessian update/contruction      :      0.000 s (15.510 %)
Making the step                 :      0.000 s (19.592 %)
Converting the step to Cartesian:      0.000 s ( 6.122 %)
Storing new data                :      0.000 s ( 4.490 %)
Checking convergence            :      0.000 s ( 5.714 %)
Final printing                  :      0.000 s (17.143 %)
Total time                      :      0.000 s

Time for energy+gradient        :      1.536 s
Time for complete geometry iter :      1.550 s

         *************************************************************
         *                GEOMETRY OPTIMIZATION CYCLE   2            *
         *************************************************************
---------------------------------
CARTESIAN COORDINATES (ANGSTROEM)
---------------------------------
  C      0.000000   -0.000000   -0.000000
  H      0.634854    0.634854    0.634854
  H     -0.634854   -0.634854    0.634854
  H     -0.634854    0.634854   -0.634854
  H      0.634854   -0.634854   -0.634854

----------------------------
CARTESIAN COORDINATES (A.U.)
----------------------------
  NO LB      ZA    FRAG     MASS         X           Y           Z
   0 C     6.0000    0    12.011    0.000000   -0.000000   -0.000000
   1 H     1.0000    0     1.008    1.199700    1.199700    1.199700
   2 H     1.0000    0     1.008   -1.199700   -1.199700    1.199700
   3 H     1.0000    0     1.008   -1.199700    1.199700   -1.199700
   4 H     1.0000    0     1.008    1.199700   -1.199700   -1.199700

--------------------------------
INTERNAL COORDINATES (ANGSTROEM)
--------------------------------
 C      0   0   0     0.000000000000     0.00000000     0.00000000
 H      1   0   0     1.099599248705     0.00000000     0.00000000
 H      1   2   0     1.099599206786   109.47122001     0.00000000
 H      1   2   3     1.099599243835   109.47121817   119.99999805
 H      1   2   3     1.099599222512   109.47122411   240.00000346

---------------------------
INTERNAL COORDINATES (A.U.)
---------------------------
 C      0   0   0     0.000000000000     0.00000000     0.00000000
 H      1   0   0     2.077941437118     0.00000000     0.00000000
 H      1   2   0     2.077941357903   109.47122001     0.00000000
 H      1   2   3     2.077941427915   109.47121817   119.99999805
 H      1   2   3     2.077941387621   109.47122411   240.00000346

------------------------------------------------------------------------------
                   ___                                                        
                  /   \      - P O W E R E D   B Y -                         
                 /     \                                                     
                 |  |  |   _    _      __       _____    __    __             
                 |  |  |  | |  | |    /  \     |  _  \  |  |  /  |          
                  \  \/   | |  | |   /    \    | | | |  |  | /  /          
                 / \  \   | |__| |  /  /\  \   | |_| |  |  |/  /          
                |  |  |   |  __  | /  /__\  \  |    /   |      \           
                |  |  |   | |  | | |   __   |  |    \   |  |\   \          
                \     /   | |  | | |  |  |  |  | |\  \  |  | \   \       
                 \___/    |_|  |_| |__|  |__|  |_| \__\ |__|  \__/        
                                                                              
                      - O R C A' S   B I G   F R I E N D -                    
                                      &                                       
                       - I N T E G R A L  F E E D E R -                       
                                                                              
 v1 FN, 2020, v2 2021, v3 2022-2024                                           
------------------------------------------------------------------------------


----------------------
SHARK INTEGRAL PACKAGE
----------------------

Number of atoms                             ...      5
Number of basis functions                   ...     34
Number of shells                            ...     18
Maximum angular momentum                    ...      2
Integral batch strategy                     ... SHARK/LIBINT Hybrid
RI-J (if used) integral strategy            ... SPLIT-RIJ (Revised 2003 algorithm where possible)
Printlevel                                  ...      1
Contraction scheme used                     ... SEGMENTED contraction
Prescreening option                         ... SCHWARTZ
   Thresh                                   ... 2.500e-11
   Tcut                                     ... 2.500e-12
   Tpresel                                  ... 2.500e-12 
Coulomb Range Separation                    ... NOT USED
Exchange Range Separation                   ... NOT USED
Multipole approximations                    ... NOT USED
Finite Nucleus Model                        ... NOT USED
CABS basis                                  ... NOT available
Auxiliary Coulomb fitting basis             ... AVAILABLE
   # of basis functions in Aux-J            ...     93
   # of shells in Aux-J                     ...     35
   Maximum angular momentum in Aux-J        ...      4
Auxiliary J/K fitting basis                 ... NOT available
Auxiliary Correlation fitting basis         ... NOT available
Auxiliary 'external' fitting basis          ... NOT available

Checking pre-screening integrals            ... done (  0.0 sec) Dimension = 18
   => SHARK Basis and OBASIS are compatible. Storing Pre-screening
Shell pair information
Shell pair cut-off parameter TPreSel        ...   2.5e-12
Total number of shell pairs                 ...       171
Shell pairs after pre-screening             ...       171
Total number of primitive shell pairs       ...       553
Primitive shell pairs kept                  ...       535
          la=0 lb=0:     66 shell pairs
          la=1 lb=0:     66 shell pairs
          la=1 lb=1:     21 shell pairs
          la=2 lb=0:     11 shell pairs
          la=2 lb=1:      6 shell pairs
          la=2 lb=2:      1 shell pairs

Checking whether 4 symmetric matrices of dimension 34 fit in memory
:Max Core in MB      =   4096.00
 MB in use           =      3.38
 MB left             =   4092.62
 MB needed           =      0.02
 Data fit in memory  = YES
Calculating RI/J V-Matrix + Cholesky decomp.... done (  0.0 sec)
Calculating Nuclear repulsion               ... done (  0.0 sec) ENN=     13.318101549459 Eh

Diagonalization of the overlap matrix:
Smallest eigenvalue                        ... 1.429e-02
Time for diagonalization                   ...    0.000 sec
Threshold for overlap eigenvalues          ... 1.000e-07
Number of eigenvalues below threshold      ... 0
Time for construction of square roots      ...    0.000 sec
Total time needed                          ...    0.001 sec

-------------------
DFT GRID GENERATION
-------------------

General Integration Accuracy     IntAcc      ... 4.388
Radial Grid Type                 RadialGrid  ... OptM3 with GC (2021)
Angular Grid (max. ang.)         AngularGrid ... 4 (Lebedev-302)
Angular grid pruning method      GridPruning ... 4 (adaptive)
Weight generation scheme         WeightScheme... mBecke (2022)
Basis function cutoff            BFCut       ... 1.0000e-11
Integration weight cutoff        WCut        ... 1.0000e-14
Partially contracted basis set               ... off
Rotationally invariant grid construction     ... off
Angular grids for H and He will be reduced by one unit

Total number of grid points                  ...    19244
Total number of batches                      ...      303
Average number of points per batch           ...       63
Average number of grid points per atom       ...     3849

--------------------
COSX GRID GENERATION
--------------------

GRIDX 1
-------
General Integration Accuracy     IntAcc      ... 3.816
Radial Grid Type                 RadialGrid  ... OptM3 with GC (2021)
Angular Grid (max. ang.)         AngularGrid ... 1 (Lebedev-50)
Angular grid pruning method      GridPruning ... 4 (adaptive)
Weight generation scheme         WeightScheme... mBecke (2022)
Basis function cutoff            BFCut       ... 1.0000e-11
Integration weight cutoff        WCut        ... 1.0000e-14
Partially contracted basis set               ... on
Rotationally invariant grid construction     ... off
Angular grids for H and He will be reduced by one unit

Total number of grid points                  ...     2472
Total number of batches                      ...       22
Average number of points per batch           ...      112
Average number of grid points per atom       ...      494
UseSFitting                                  ... on

GRIDX 2
-------
General Integration Accuracy     IntAcc      ... 4.020
Radial Grid Type                 RadialGrid  ... OptM3 with GC (2021)
Angular Grid (max. ang.)         AngularGrid ... 2 (Lebedev-110)
Angular grid pruning method      GridPruning ... 4 (adaptive)
Weight generation scheme         WeightScheme... mBecke (2022)
Basis function cutoff            BFCut       ... 1.0000e-11
Integration weight cutoff        WCut        ... 1.0000e-14
Partially contracted basis set               ... on
Rotationally invariant grid construction     ... off
Angular grids for H and He will be reduced by one unit

Total number of grid points                  ...     5008
Total number of batches                      ...       41
Average number of points per batch           ...      122
Average number of grid points per atom       ...     1002
UseSFitting                                  ... on

GRIDX 3
-------
General Integration Accuracy     IntAcc      ... 4.338
Radial Grid Type                 RadialGrid  ... OptM3 with GC (2021)
Angular Grid (max. ang.)         AngularGrid ... 3 (Lebedev-194)
Angular grid pruning method      GridPruning ... 4 (adaptive)
Weight generation scheme         WeightScheme... mBecke (2022)
Basis function cutoff            BFCut       ... 1.0000e-11
Integration weight cutoff        WCut        ... 1.0000e-14
Partially contracted basis set               ... on
Rotationally invariant grid construction     ... off
Angular grids for H and He will be reduced by one unit

Total number of grid points                  ...    11132
Total number of batches                      ...       89
Average number of points per batch           ...      125
Average number of grid points per atom       ...     2226
UseSFitting                                  ... on
Grids setup in   0.1 sec
Initializing property integral containers    ... done (  0.0 sec)

SHARK setup successfully completed in   0.1 seconds

Maximum memory used throughout the entire STARTUP-calculation: 9.3 MB
Occupation numbers will be reassigned to an Aufbau configuration
             **** ENERGY FILE WAS UPDATED (/home/jonathan/moleculas_orca_project/runs/methane/inputs/methane.en.tmp) ****
Finished Guess after   0.0 sec
Maximum memory used throughout the entire GUESS-calculation: 5.6 MB
----------------------------------------D-I-I-S--------------------------------------------
Iteration    Energy (Eh)           Delta-E    RMSDP     MaxDP     DIISErr   Damp  Time(sec)
-------------------------------------------------------------------------------------------
               ***  Starting incremental Fock matrix formation  ***
    1    -40.4519067663353411     0.00e+00  1.73e-04  1.95e-03  3.46e-03  0.700   0.1
                              *** Initializing SOSCF ***
---------------------------------------S-O-S-C-F--------------------------------------
Iteration    Energy (Eh)           Delta-E    RMSDP     MaxDP     MaxGrad    Time(sec)
--------------------------------------------------------------------------------------
    2    -40.4519227065444795    -1.59e-05  4.69e-04  5.13e-03  2.07e-03     0.0
               *** Restarting incremental Fock matrix formation ***
    3    -40.4519527571728332    -3.01e-05  2.39e-04  2.88e-03  8.08e-04     0.1
    4    -40.4519518415999784     9.16e-07  1.29e-04  1.36e-03  7.89e-04     0.1
    5    -40.4519568841301123    -5.04e-06  1.28e-06  2.04e-05  6.11e-06     0.1
    6    -40.4519568841739670    -4.39e-11  1.04e-07  1.66e-06  4.37e-07     0.1
                 **** Energy Check signals convergence ****

               *****************************************************
               *                     SUCCESS                       *
               *           SCF CONVERGED AFTER   6 CYCLES          *
               *****************************************************

Recomputing exchange energy using gridx3       ... done (    0.066 sec)
Old exchange energy                            :     -1.311843578 Eh
New exchange energy                            :     -1.311822441 Eh
Exchange energy change after final integration :      0.000021137 Eh
Total energy after final integration           :    -40.451935748 Eh
             **** ENERGY FILE WAS UPDATED (/home/jonathan/moleculas_orca_project/runs/methane/inputs/methane.en.tmp) ****

----------------
TOTAL SCF ENERGY
----------------

Total Energy       :        -40.45193574788708 Eh           -1100.75313 eV

Components:
Nuclear Repulsion  :         13.31810154945860 Eh             362.40397 eV
Electronic Energy  :        -53.77005843397997 Eh           -1463.15768 eV
One Electron Energy:        -79.54238992839075 Eh           -2164.45847 eV
Two Electron Energy:         25.77233149441078 Eh             701.30079 eV

Virial components:
Potential Energy   :        -80.28209421773533 Eh           -2184.58685 eV
Kinetic Energy     :         39.83015846984825 Eh            1083.83371 eV
Virial Ratio       :          2.01561071564678

DFT components:
N(Alpha)           :        5.000016318111 electrons
N(Beta)            :        5.000016318111 electrons
N(Total)           :       10.000032636222 electrons
E(X)               :       -5.183325043239 Eh       
E(C)               :       -0.350551562518 Eh       
E(XC)              :       -5.533876605757 Eh       

---------------
SCF CONVERGENCE
---------------

  Last Energy change         ...    4.3855e-11  Tolerance :   1.0000e-08
  Last MAX-Density change    ...    1.6619e-06  Tolerance :   1.0000e-07
  Last RMS-Density change    ...    1.0399e-07  Tolerance :   5.0000e-09
  Last DIIS Error            ...    2.0669e-03  Tolerance :   5.0000e-07
  Last Orbital Gradient      ...    4.3726e-07  Tolerance :   1.0000e-05
  Last Orbital Rotation      ...    6.4075e-07  Tolerance :   1.0000e-05


Total SCF time: 0 days 0 hours 0 min 0 sec 
Finished LeanSCF after   0.5 sec

Maximum memory used throughout the entire LEANSCF-calculation: 5.6 MB

------------------------------------------------------------------------------
                         ORCA PROPERTY INTEGRAL CALCULATIONS
------------------------------------------------------------------------------

GBWName                                   ... /home/jonathan/moleculas_orca_project/runs/methane/inputs/methane.gbw
Number of atoms                           ...      5
Number of basis functions                 ...     34
Max core memory                           ...   4096 MB

Dipole integrals                          ... YES
Quadrupole integrals                      ...  NO
Linear momentum integrals                 ...  NO
Angular momentum integrals                ...  NO
Higher moments length integrals           ...  NO
Higher moments velocity integrals         ...  NO
Kinetic energy integrals                  ...  NO
GIAO right hand sides                     ...  NO
GIAO dipole derivative integrals          ...  NO
SOC integrals                             ...  NO
EPR diamagnetic integrals (GIAO)          ...  NO
EPR gauge integrals                       ...  NO
Field gradient integrals                  ...  NO (   0 nuclei)
Spin-dipole/Fermi contact integrals       ...  NO (   0 nuclei)
Contact density integrals                 ...  NO (   0 nuclei)
Nucleus-orbit integrals                   ...  NO (   0 nuclei)
Geometric perturbations                   ...  NO (   5 nuclei)

Choice of electric origin   ... Center of mass
Position of electric origin ... (  0.0000, -0.0000, -0.0000) 
Choice of magnetic origin   ... GIAO
Position of magnetic origin ... (  0.0000,  0.0000,  0.0000) 

Calculating integrals                     ... Electric Dipole (Length)     done (  0.0 sec)

Property integrals calculated in   0.0 sec

Maximum memory used throughout the entire PROPINT-calculation: 5.7 MB

-------------------------   --------------------
FINAL SINGLE POINT ENERGY       -40.451935747887
-------------------------   --------------------

------------------------------------------------------------------------------
                         ORCA SCF GRADIENT CALCULATION
------------------------------------------------------------------------------

Nuc. rep. gradient        (SHARK) ... done (  0.0 sec)
HCore & Overlap gradient  (SHARK) ... done (  0.0 sec)
Split-RIJ-J gradient      (SHARK) ... done (  0.0 sec)
done (  0.3 sec)
XC gradient                       ... done (  0.1 sec)

------------------
CARTESIAN GRADIENT
------------------

   1   C   :    0.000000014   -0.000000032    0.000000065
   2   H   :   -0.000037211   -0.000037189   -0.000037204
   3   H   :    0.000037197    0.000037195   -0.000037194
   4   H   :    0.000037156   -0.000037127    0.000037160
   5   H   :   -0.000037156    0.000037153    0.000037174

Difference to translation invariance:
           :    0.0000000000    0.0000000000    0.0000000000

Difference to rotation invariance:
           :   -0.0000000050   -0.0000000233   -0.0000000115

Norm of the Cartesian gradient     ...    0.0001287822
RMS gradient                       ...    0.0000332514
MAX gradient                       ...    0.0000372110

-------
TIMINGS
-------

Total SCF gradient time     ....        0.471 sec

Densities                   ....       0.000 sec  (  0.0%)
One electron gradient       ....       0.003 sec  (  0.7%)
RI-J Coulomb gradient       ....       0.045 sec  (  9.6%)
COSX gradient               ....       0.330 sec  ( 70.1%)
XC gradient                 ....       0.092 sec  ( 19.6%)

Maximum memory used throughout the entire SCFGRAD-calculation: 7.0 MB
------------------------------------------------------------------------------
                         ORCA GEOMETRY RELAXATION STEP
------------------------------------------------------------------------------

Reading the OPT-File                    .... done
Getting information on internals        .... done
Copying old internal coords+grads       .... done
Making the new internal coordinates     .... (2022 redundants) done
Validating the new internal coordinates .... (2022 redundants) done
Calculating the B-matrix                .... done
Calculating the G,G- and P matrices     .... done
Transforming gradient to internals      .... done
Projecting the internal gradient        .... done
Number of atoms                         ....   5
Number of internal coordinates          ....  10
Current Energy                          ....   -40.451935748 Eh
Current gradient norm                   ....     0.000128782 Eh/bohr
Maximum allowed component of the step   ....  0.300
Current trust radius                    ....  0.300
Updating the Hessian (BFGS)             .... done
Forming the augmented Hessian           .... done
Diagonalizing the augmented Hessian     .... done
Last element of RFO vector              ....  0.999999935
Lowest eigenvalues of augmented Hessian:
 -0.000000046  0.290952118  0.290952118  0.290952118  0.290952118
Length of the computed step             ....  0.000360105
The final length of the internal step   ....  0.000360105
Converting the step to Cartesian space:
 Initial RMS(Int)=    0.0001138753
Transforming coordinates:
 Iter   0:  RMS(Cart)=    0.0000929788 RMS(Int)=    0.0001138753
done
Storing new coordinates                 .... done
The predicted energy change is          ....    -0.000000023
Previously predicted energy change      ....    -0.000254881
Actually observed energy change         ....    -0.000252175
Ratio of predicted to observed change   ....     0.989384675
New trust radius                        ....     0.450000000

                                .--------------------.
          ----------------------|Geometry convergence|-------------------------
          Item                value                   Tolerance       Converged
          ---------------------------------------------------------------------
          Energy change      -0.0002521752            0.0000050000      NO
          RMS gradient        0.0000407245            0.0001000000      YES
          MAX gradient        0.0000644343            0.0003000000      YES
          RMS step            0.0001138753            0.0020000000      YES
          MAX step            0.0001801736            0.0040000000      YES
          -------------------------------------------------------------------------
          ........................................................
          Max(Bonds)      0.0001      Max(Angles)    0.00
          Max(Dihed)        0.00      Max(Improp)    0.00
          ---------------------------------------------------------------------

       Everything but the energy has converged. However, the energy
       appears to be close enough to convergence to make sure that the
       final evaluation at the new geometry represents the equilibrium energy.
       Convergence will therefore be signaled now


                    ***********************HURRAY********************
                    ***        THE OPTIMIZATION HAS CONVERGED     ***
                    *************************************************


    ---------------------------------------------------------------------------
                         Redundant Internal Coordinates

                          --- Optimized Parameters ---  
                            (Angstroem and degrees)

        Definition                    OldVal   dE/dq     Step     FinalVal
    ----------------------------------------------------------------------------
     1. B(H   1,C   0)                1.0996 -0.000064  0.0001    1.0997   
     2. B(H   2,C   0)                1.0996 -0.000064  0.0001    1.0997   
     3. B(H   3,C   0)                1.0996 -0.000064  0.0001    1.0997   
     4. B(H   4,C   0)                1.0996 -0.000064  0.0001    1.0997   
     5. A(H   1,C   0,H   3)          109.47 -0.000000    0.00    109.47   
     6. A(H   2,C   0,H   3)          109.47  0.000000   -0.00    109.47   
     7. A(H   1,C   0,H   4)          109.47  0.000000   -0.00    109.47   
     8. A(H   2,C   0,H   4)          109.47 -0.000000    0.00    109.47   
     9. A(H   3,C   0,H   4)          109.47  0.000000   -0.00    109.47   
    10. A(H   1,C   0,H   2)          109.47 -0.000000    0.00    109.47   
    ----------------------------------------------------------------------------

Geometry step timings:
Preparation and reading OPT file:      0.000 s ( 3.947 %)
Internal coordinates            :      0.000 s ( 4.167 %)
B/P matrices and projection     :      0.000 s (21.053 %)
Hessian update/contruction      :      0.000 s (23.026 %)
Making the step                 :      0.000 s (10.526 %)
Converting the step to Cartesian:      0.000 s ( 4.825 %)
Storing new data                :      0.000 s ( 3.728 %)
Checking convergence            :      0.000 s (13.158 %)
Final printing                  :      0.000 s (15.570 %)
Total time                      :      0.000 s
                 *******************************************************
                 *** FINAL ENERGY EVALUATION AT THE STATIONARY POINT ***
                 ***               (AFTER    2 CYCLES)               ***
                 *******************************************************
---------------------------------
CARTESIAN COORDINATES (ANGSTROEM)
---------------------------------
  C      0.000000    0.000000   -0.000000
  H      0.634909    0.634909    0.634909
  H     -0.634909   -0.634909    0.634909
  H     -0.634909    0.634909   -0.634909
  H      0.634909   -0.634909   -0.634909

----------------------------
CARTESIAN COORDINATES (A.U.)
----------------------------
  NO LB      ZA    FRAG     MASS         X           Y           Z
   0 C     6.0000    0    12.011    0.000000    0.000000   -0.000000
   1 H     1.0000    0     1.008    1.199804    1.199804    1.199804
   2 H     1.0000    0     1.008   -1.199804   -1.199804    1.199804
   3 H     1.0000    0     1.008   -1.199804    1.199804   -1.199804
   4 H     1.0000    0     1.008    1.199804   -1.199804   -1.199804

--------------------------------
INTERNAL COORDINATES (ANGSTROEM)
--------------------------------
 C      0   0   0     0.000000000000     0.00000000     0.00000000
 H      1   0   0     1.099694592492     0.00000000     0.00000000
 H      1   2   0     1.099694535610   109.47122070     0.00000000
 H      1   2   3     1.099694450016   109.47122486   120.00000024
 H      1   2   3     1.099694462594   109.47122344   240.00000300

---------------------------
INTERNAL COORDINATES (A.U.)
---------------------------
 C      0   0   0     0.000000000000     0.00000000     0.00000000
 H      1   0   0     2.078121610764     0.00000000     0.00000000
 H      1   2   0     2.078121503273   109.47122070     0.00000000
 H      1   2   3     2.078121341523   109.47122486   120.00000024
 H      1   2   3     2.078121365292   109.47122344   240.00000300

---------------------
BASIS SET INFORMATION
---------------------
There are 2 groups of distinct atoms

 Group   1 Type C   : 7s4p1d contracted to 3s2p1d pattern {511/31/1}
 Group   2 Type H   : 4s1p contracted to 2s1p pattern {31/1}

Atom   0C    basis set group =>   1
Atom   1H    basis set group =>   2
Atom   2H    basis set group =>   2
Atom   3H    basis set group =>   2
Atom   4H    basis set group =>   2
---------------------------------
AUXILIARY/J BASIS SET INFORMATION
---------------------------------
There are 2 groups of distinct atoms

 Group   1 Type C   : 12s5p4d2f1g contracted to 6s4p3d1f1g pattern {711111/2111/211/2/1}
 Group   2 Type H   : 5s2p1d contracted to 3s1p1d pattern {311/2/1}

Atom   0C    basis set group =>   1
Atom   1H    basis set group =>   2
Atom   2H    basis set group =>   2
Atom   3H    basis set group =>   2
Atom   4H    basis set group =>   2
------------------------------------------------------------------------------
                             ORCA STARTUP CALCULATIONS
                           -- RI-GTO INTEGRALS CHOSEN --
------------------------------------------------------------------------------
------------------------------------------------------------------------------
                   ___                                                        
                  /   \      - P O W E R E D   B Y -                         
                 /     \                                                     
                 |  |  |   _    _      __       _____    __    __             
                 |  |  |  | |  | |    /  \     |  _  \  |  |  /  |          
                  \  \/   | |  | |   /    \    | | | |  |  | /  /          
                 / \  \   | |__| |  /  /\  \   | |_| |  |  |/  /          
                |  |  |   |  __  | /  /__\  \  |    /   |      \           
                |  |  |   | |  | | |   __   |  |    \   |  |\   \          
                \     /   | |  | | |  |  |  |  | |\  \  |  | \   \       
                 \___/    |_|  |_| |__|  |__|  |_| \__\ |__|  \__/        
[...]

Choice of electric origin               ... Center of mass
Position of electric origin             ...     0.000000     0.000000    -0.000000

General magnetic properties:
Magnetizability                         ...  NO

EPR properties:
g-Tensor (aka g-matrix)                 ...  NO
Zero-Field splitting spin-orbit         ...  NO
Zero-field splitting spin-spin          ...  NO
Hyperfine couplings                     ...  NO (   0 nuclei)
Quadrupole couplings                    ...  NO (   0 nuclei)
Contact density                         ...  NO (   0 nuclei)

NMR properties:
Chemical shifts                         ...  NO (   0 nuclei)
Spin-rotation constants                 ...  NO (   0 nuclei)
Spin-spin couplings                     ...  NO (   0 nuclei,    0 pairs)

Choice of magnetic origin               ... GIAO
Position of magnetic origin             ...     0.000000     0.000000     0.000000

Properties with geometric perturbations:
SCF Hessian                             ... YES
IR spectrum                             ... YES
VCD spectrum                            ...  NO
X-ray spectroscopy properties:
SCF XES/XAS/RIXS spectra                ...  NO

SCF SOC stabilization energy            ...  NO
Diagonal Born-Oppenheimer correction    ...  NO

-------------
DIPOLE MOMENT
-------------

Method             : SCF
Type of density    : Electron Density
Multiplicity       :   1
Irrep              :   0
Energy             :   -40.4519371092530804 Eh
Basis              : AO
                                X                 Y                 Z
Electronic contribution:     -0.000000002       0.000000036      -0.000000125
Nuclear contribution   :     -0.000000024      -0.000000071       0.000000073
                        -----------------------------------------
Total Dipole Moment    :     -0.000000026      -0.000000036      -0.000000052
                        -----------------------------------------
Magnitude (a.u.)       :      0.000000068
Magnitude (Debye)      :      0.000000173



--------------------
Rotational spectrum 
--------------------
 
Rotational constants in cm-1:             5.185889             5.185888             5.185888 
Rotational constants in MHz :        155469.027574        155469.011804        155469.006358 

Dipole components along the rotational axes: 
x,y,z [a.u.] :     0.000000    -0.000000     0.000000 
x,y,z [Debye]:     0.000000    -0.000000     0.000000 

 

Dipole moment calculation done in   0.0 sec 

-----------
SCF HESSIAN
-----------

Occupied/Occupied contributions to the Hessian:
   => Occupied/Occupied contributions              ... done (  0.0 sec)
Perturbed density contributions to the Hessian:
   => Perturbed density contributions              ... done (  0.0 sec)
Explicit contributions to the Hessian:
   => Nuclear repulsion Hessian                    ... done (  0.0 sec)
   => HCore and overlap Hessian                    ... done (  0.0 sec)
   => RI-J Hessian                                 ... done (  0.1 sec)
   => COSX Hessian                                 ... done (  2.4 sec)
   => XC-Hessian                                   ... done (  0.6 sec)
   => Explicit contributions done
Dipole derivatives                                 ... done (  0.0 sec)
Mass weighting the Hessian           ... done
Calculating normal modes             ... done
Scaling frequencies                  ... done

-----------------------
VIBRATIONAL FREQUENCIES
-----------------------

Scaling factor for frequencies =  1.000000000  (already applied!)

     0:       0.00 cm**-1
     1:       0.00 cm**-1
     2:       0.00 cm**-1
     3:       0.00 cm**-1
     4:       0.00 cm**-1
     5:       0.00 cm**-1
     6:    1313.76 cm**-1
     7:    1313.77 cm**-1
     8:    1313.77 cm**-1
     9:    1530.74 cm**-1
    10:    1530.74 cm**-1
    11:    3018.26 cm**-1
    12:    3151.57 cm**-1
    13:    3151.57 cm**-1
    14:    3151.57 cm**-1


------------
NORMAL MODES
------------

These modes are the Cartesian displacements weighted by the diagonal matrix
M(i,i)=1/sqrt(m[i]) where m[i] is the mass of the displaced atom
Thus, these vectors are normalized but *not* orthogonal

                  0          1          2          3          4          5    
      0       0.000000   0.000000   0.000000   0.000000   0.000000   0.000000
      1       0.000000   0.000000   0.000000   0.000000   0.000000   0.000000
      2       0.000000   0.000000   0.000000   0.000000   0.000000   0.000000
      3       0.000000   0.000000   0.000000   0.000000   0.000000   0.000000
      4       0.000000   0.000000   0.000000   0.000000   0.000000   0.000000
      5       0.000000   0.000000   0.000000   0.000000   0.000000   0.000000
      6       0.000000   0.000000   0.000000   0.000000   0.000000   0.000000
      7       0.000000   0.000000   0.000000   0.000000   0.000000   0.000000
      8       0.000000   0.000000   0.000000   0.000000   0.000000   0.000000
      9       0.000000   0.000000   0.000000   0.000000   0.000000   0.000000
     10       0.000000   0.000000   0.000000   0.000000   0.000000   0.000000
     11       0.000000   0.000000   0.000000   0.000000   0.000000   0.000000
     12       0.000000   0.000000   0.000000   0.000000   0.000000   0.000000
     13       0.000000   0.000000   0.000000   0.000000   0.000000   0.000000
     14       0.000000   0.000000   0.000000   0.000000   0.000000   0.000000
                  6          7          8          9         10         11    
      0       0.063660  -0.103449  -0.025590  -0.000000  -0.000000   0.000000
      1      -0.078897  -0.065789   0.069687   0.000000   0.000000  -0.000000
      2      -0.071637  -0.019474  -0.099489  -0.000000   0.000000   0.000000
      3      -0.473269   0.147518   0.020078   0.157798  -0.376519  -0.288675
      4       0.219996  -0.035627  -0.443261   0.247176   0.324916  -0.288675
      5       0.184693  -0.260862   0.379456  -0.404974   0.051603  -0.288675
      6      -0.203315   0.220901   0.394985  -0.157797   0.376520   0.288676
      7       0.489948   0.037757  -0.068354  -0.247177  -0.324916   0.288676
      8       0.242110   0.376883   0.213283  -0.404974   0.051603  -0.288676
      9      -0.175960   0.395432  -0.242526  -0.157797   0.376520   0.288674
     10       0.250057   0.427587   0.028076   0.247177   0.324916  -0.288674
     11       0.482002  -0.012947   0.116852   0.404974  -0.051603   0.288674
     12       0.093992   0.468816   0.132381   0.157797  -0.376519  -0.288676
     13      -0.019896   0.354204  -0.346831  -0.247176  -0.324916   0.288676
     14      -0.055198   0.128969   0.475886   0.404974  -0.051603   0.288676
                 12         13         14    
      0       0.057636  -0.046927   0.055885
      1      -0.011237  -0.076071  -0.052289
      2      -0.072104  -0.025656   0.052820
      3       0.090449   0.459765  -0.168148
      4       0.078983   0.454913  -0.186156
      5       0.068850   0.463306  -0.168658
      6      -0.363145   0.298369   0.164132
      7      -0.374610   0.293518   0.146124
      8       0.360736  -0.310453  -0.146035
      9       0.019758  -0.018784  -0.497087
     10      -0.012034  -0.001692   0.497686
     11      -0.001841  -0.015243  -0.497597
     12      -0.433835  -0.180178  -0.164805
     13       0.441560   0.159702   0.165403
     14       0.431427   0.168095   0.182901


-----------
IR SPECTRUM
-----------

 Mode   freq       eps      Int      T**2         TX        TY        TZ
       cm**-1   L/(mol*cm) km/mol    a.u.
----------------------------------------------------------------------------
  6:   1313.76   0.002649   13.39  0.000629  (-0.012864  0.015943  0.014476)
  7:   1313.77   0.002649   13.39  0.000629  ( 0.020904  0.013294  0.003935)
  8:   1313.77   0.002649   13.39  0.000629  ( 0.005171 -0.014082  0.020104)
  9:   1530.74   0.000000    0.00  0.000000  ( 0.000000  0.000000 -0.000000)
 10:   1530.74   0.000000    0.00  0.000000  ( 0.000000  0.000000 -0.000000)
 11:   3018.26   0.000000    0.00  0.000000  ( 0.000000 -0.000000  0.000000)
 12:   3151.57   0.003491   17.64  0.000346  ( 0.011523 -0.002247 -0.014415)
 13:   3151.57   0.003491   17.64  0.000346  (-0.009382 -0.015209 -0.005129)
 14:   3151.57   0.003491   17.64  0.000346  ( 0.011173 -0.010454  0.010560)

* The epsilon (eps) is given for a Dirac delta lineshape.
** The dipole moment derivative (T) already includes vibrational overlap.

The first frequency considered to be a vibration is 6
The total number of vibrations considered is 9


--------------------------
THERMOCHEMISTRY AT 298.15K
--------------------------

Temperature         ...   298.15 K
Pressure            ...     1.00 atm
Total Mass          ...    16.04 AMU
Quasi RRHO          ...     True
Cut-Off Frequency   ...     1.00 cm^-1

Throughout the following assumptions are being made:
  (1) The electronic state is orbitally nondegenerate
  (2) There are no thermally accessible electronically excited states
  (3) Hindered rotations indicated by low frequency modes are not
      treated as such but are treated as vibrations and this may
      cause some error
  (4) All equations used are the standard statistical mechanics
      equations for an ideal gas
  (5) All vibrations are strictly harmonic

freq.    1313.76  E(vib)   ...       0.01 
freq.    1313.77  E(vib)   ...       0.01 
freq.    1313.77  E(vib)   ...       0.01 
freq.    1530.74  E(vib)   ...       0.00 
freq.    1530.74  E(vib)   ...       0.00 
freq.    3018.26  E(vib)   ...       0.00 
freq.    3151.57  E(vib)   ...       0.00 
freq.    3151.57  E(vib)   ...       0.00 
freq.    3151.57  E(vib)   ...       0.00 

------------
INNER ENERGY
------------

The inner energy is: U= E(el) + E(ZPE) + E(vib) + E(rot) + E(trans)
    E(el)   - is the total energy from the electronic structure calculation
              = E(kin-el) + E(nuc-el) + E(el-el) + E(nuc-nuc)
    E(ZPE)  - the the zero temperature vibrational energy from the frequency calculation
    E(vib)  - the the finite temperature correction to E(ZPE) due to population
              of excited vibrational states
    E(rot)  - is the rotational thermal energy
    E(trans)- is the translational thermal energy

Summary of contributions to the inner energy U:
Electronic energy                ...    -40.45193711 Eh
Zero point energy                ...      0.04436898 Eh      27.84 kcal/mol
Thermal vibrational correction   ...      0.00004041 Eh       0.03 kcal/mol
Thermal rotational correction    ...      0.00141627 Eh       0.89 kcal/mol
Thermal translational correction ...      0.00141627 Eh       0.89 kcal/mol
-----------------------------------------------------------------------
Total thermal energy                    -40.40469518 Eh


Summary of corrections to the electronic energy:
(perhaps to be used in another calculation)
Total thermal correction                  0.00287296 Eh       1.80 kcal/mol
Non-thermal (ZPE) correction              0.04436898 Eh      27.84 kcal/mol
-----------------------------------------------------------------------
Total correction                          0.04724193 Eh      29.64 kcal/mol


--------
ENTHALPY
--------

The enthalpy is H = U + kB*T
                kB is Boltzmann's constant
Total thermal energy              ...    -40.40469518 Eh 
Thermal Enthalpy correction       ...      0.00094421 Eh       0.59 kcal/mol
-----------------------------------------------------------------------
Total Enthalpy                    ...    -40.40375097 Eh


Note: Rotational entropy computed according to Herzberg 
Infrared and Raman Spectra, Chapter V,1, Van Nostrand Reinhold, 1945 
Point Group:  Td, Symmetry Number:  12  
Rotational constants in cm-1:     5.185893     5.185893     5.185892 

Vibrational entropy computed according to the QRRHO of S. Grimme
Chem.Eur.J. 2012 18 9955 using a reference frequency of 100.0 cm-1


-------
ENTROPY
-------

The entropy contributions are T*S = T*(S(el)+S(vib)+S(rot)+S(trans))
     S(el)   - electronic entropy
     S(vib)  - vibrational entropy
     S(rot)  - rotational entropy
     S(trans)- translational entropy
The entropies will be listed as multiplied by the temperature to get
units of energy

Electronic entropy                ...      0.00000000 Eh      0.00 kcal/mol
Vibrational entropy               ...      0.00004660 Eh      0.03 kcal/mol
Rotational entropy                ...      0.00483351 Eh      3.03 kcal/mol
Translational entropy             ...      0.01627961 Eh     10.22 kcal/mol
-----------------------------------------------------------------------
Final entropy term                ...      0.02115972 Eh     13.28 kcal/mol

In case the symmetry of your molecule has not been determined correctly
or in case you have a reason to use a different symmetry number we print 
out the resulting rotational entropy values for sn=1,12:

 non-linear molecules -----------------------------------
|  sn= 1 | S(rot)=       0.00717971 Eh      4.51 kcal/mol|
|  sn= 2 | S(rot)=       0.00652525 Eh      4.09 kcal/mol|
|  sn= 3 | S(rot)=       0.00614242 Eh      3.85 kcal/mol|
|  sn= 4 | S(rot)=       0.00587080 Eh      3.68 kcal/mol|
|  sn= 5 | S(rot)=       0.00566011 Eh      3.55 kcal/mol|
|  sn= 6 | S(rot)=       0.00548796 Eh      3.44 kcal/mol|
|  sn= 7 | S(rot)=       0.00534242 Eh      3.35 kcal/mol|
|  sn= 8 | S(rot)=       0.00521634 Eh      3.27 kcal/mol|
|  sn= 9 | S(rot)=       0.00510513 Eh      3.20 kcal/mol|
|  sn=10 | S(rot)=       0.00500565 Eh      3.14 kcal/mol|
|  sn=11 | S(rot)=       0.00491566 Eh      3.08 kcal/mol|
|  sn=12 | S(rot)=       0.00483351 Eh      3.03 kcal/mol|
 linear molecules ---------------------------------------
|  Dinfh | S(rot)=       0.00377174 Eh      2.37 kcal/mol|
|  Cinfv | S(rot)=       0.00442620 Eh      2.78 kcal/mol|
 --------------------------------------------------------


-------------------
GIBBS FREE ENERGY
-------------------

The Gibbs free energy is G = H - T*S

Total enthalpy                    ...    -40.40375097 Eh 
Total entropy correction          ...     -0.02115972 Eh    -13.28 kcal/mol
-----------------------------------------------------------------------
Final Gibbs free energy         ...    -40.42491069 Eh

For completeness - the Gibbs free energy minus the electronic energy
G-E(el)                           ...      0.02702642 Eh     16.96 kcal/mol


Maximum memory used throughout the entire PROP-calculation: 9.2 MB

--------------------------------
SUGGESTED CITATIONS FOR THIS RUN
--------------------------------

Below you find a list of papers that are relevant to this ORCA run
We neither can nor want to force you to cite these papers, but we appreciate if you do
You receive ORCA, which is the product of decades of hard work by many enthusiastic individuals, for free
The only thing we kindly ask in return is that you cite our papers,
We deeply appreciate it, if you show your appreciation for ORCA by not just citing the generic ORCA reference.

Please note that relegating all ORCA citations to the supporting information does *not* help us.
SI sections are not indexed - citations you put there will not count into any citation statistics
But we need these citations in order to attract the funding resources that allow us to do what we are doing

Therefore, if you are a happy ORCA user, please consider citing a few of the papers listed below in the main body of your paper

In addition to the list printed below, the program has created the file /home/jonathan/moleculas_orca_project/runs/methane/inputs/methane.bibtex that contains the list in bibtex format
You can import this file easily into all common literature databanks and citation aid programs


List of essential papers. We consider these as the minimum necessary citations

  1. Neese, F.
     Software update: the ORCA program system, version 6.0
     WIRES Comput. Molec. Sci. 2025 15(1), e70019
     doi.org/10.1002/wcms.7019

List of papers to cite with high priority. The work reported in these papers was absolutely
necessary for this run to complete.
Our perspective: the developers of density functionals and basis sets usually get cited in chemistry papers
Good! But without the algorithms to do something with them, the functionals or basis sets would not do anything.
Hence, in our opinion, the algorithm design and method developments papers are equally worthy of getting cited

  1. Neese, F.
     An improvement of the resolution of the identity approximation for the formation of the Coulomb matrix
     J. Comp. Chem. 2003 24(14), 1740-1747
     doi.org/10.1002/jcc.10318
  2. Neese, F.; Wennmohs, F.; Hansen, A.; Becker, U.
     Efficient, approximate and parallel Hartree-Fock and hybrid DFT calculations. A 'chain-of-spheres' algorithm for the Hartree-Fock exchange
     Chem. Phys. 2009 356(1-3), 98-109
     doi.org/10.1016/j.chemphys.2008.10.036
  3. Bykov, D.; Petrenko, T.; Izsak, R.; Kossmann, S.; Becker, U.; Valeev, E.; Neese, F.
     Efficient implementation of the analytic second derivatives of Hartree-Fock and hybrid DFT energies: a detailed analysis of different approximations
     Molec. Phys. 2015 113 , 1961-1977
     doi.org/10.1080/00268976.2015.1025114
  4. Helmich-Paris, B.; de Souza, B.; Neese, F.; Izsák, R.
     An improved chain of spheres for exchange algorithm
     J. Chem. Phys. 2021 155(10), 104109
     doi.org/10.1063/5.0058766
  5. Neese, F.
     The SHARK Integral Generation and Digestion System
     J. Comp. Chem. 2022 44(3), 381
     doi.org/10.1002/jcc.26942

List of suggested additional citations. These are papers that are important in the 'surrounding' of 
of this run, or papers that preceded the highly important papers. If you like your results we are grateful for a citation.

  1. Izsak, R.; Neese, F.
     An overlap fitted chain of spheres exchange method
     J. Chem. Phys. 2011 135 , 144105
     doi.org/10.1063/1.3646921
  2. Izsak, R.; Hansen, A.; Neese, F.
     The resolution of identity and chain of spheres approximations for the LPNO-CCSD singles Fock term
     Molec. Phys. 2012 110 , 2413-2417
     doi.org/10.1080/00268976.2012.687466
  3. Neese, F.
     The ORCA program system
     WIRES Comput. Molec. Sci. 2012 2(1), 73-78
     doi.org/10.1002/wcms.81
  4. Izsak, R.; Neese, F.; Klopper, W.
     Robust fitting techniques in the chain of spheres approximation to the Fock exchange: The role of the complementary space
     J. Chem. Phys. 2013 139 , 
     doi.org/10.1063/1.4819264
  5. Neese, F.
     Software update: the ORCA program system, version 4.0
     WIRES Comput. Molec. Sci. 2018 8(1), 1-6
     doi.org/10.1002/wcms.1327
  6. Neese, F.; Wennmohs, F.; Becker, U.; Riplinger, C.
     The ORCA quantum chemistry program package
     J. Chem. Phys. 2020 152(22), 224108
     doi.org/10.1063/5.0004608
  7. Neese, F.
     Software update: The ORCA program system—Version 5.0
     WIRES Comput. Molec. Sci. 2022 12(1), e1606
     doi.org/10.1002/wcms.1606

List of optional additional citations

  1. Neese, F.
     Approximate second-order SCF convergence for spin unrestricted wavefunctions
     Chem. Phys. Lett. 2000 325(1-3), 93-98
     doi.org/10.1016/s0009-2614(00)00662-x

Timings for individual modules:

Sum of individual times          ...        7.468 sec (=   0.124 min)
Startup calculation              ...        0.365 sec (=   0.006 min)   4.9 %
SCF iterations                   ...        1.855 sec (=   0.031 min)  24.8 %
Property integrals               ...        0.851 sec (=   0.014 min)  11.4 %
SCF Response                     ...        0.270 sec (=   0.004 min)   3.6 %
Property calculations            ...        3.116 sec (=   0.052 min)  41.7 %
SCF Gradient evaluation          ...        1.005 sec (=   0.017 min)  13.5 %
Geometry relaxation              ...        0.005 sec (=   0.000 min)   0.1 %
                             ****ORCA TERMINATED NORMALLY****
TOTAL RUN TIME: 0 days 0 hours 0 minutes 7 seconds 566 msec
