
                                 *****************
                                 * O   R   C   A *
                                 *****************

           --- An Ab Initio, DFT and Semiempirical electronic structure package ---

                  #######################################################
                  #                        -***-                        #
                  #          Department of theory and spectroscopy      #
                  #               Directorship: Frank Neese             #
                  #        Max Planck Institute fuer Kohlenforschung    #
                  #                Kaiser Wilhelm Platz 1               #
                  #                 D-45470 Muelheim/Ruhr               #
                  #                      Germany                        #
                  #                                                     #
                  #                  All rights reserved                #
                  #                        -***-                        #
                  #######################################################


                         Program Version 4.2.1 -  RELEASE  -


 With contributions from (in alphabetic order):
   Daniel Aravena         : Magnetic Suceptibility
   Michael Atanasov       : Ab Initio Ligand Field Theory (pilot matlab implementation)
   Alexander A. Auer      : GIAO ZORA, VPT2
   Ute Becker             : Parallelization
   Giovanni Bistoni       : ED, misc. LED, open-shell LED, HFLD
   Martin Brehm           : Molecular dynamics
   Dmytro Bykov           : SCF Hessian
   Vijay G. Chilkuri      : MRCI spin determinant printing, contributions to CSF-ICE
   Dipayan Datta          : RHF DLPNO-CCSD density
   Achintya Kumar Dutta   : EOM-CC, STEOM-CC
   Dmitry Ganyushin       : Spin-Orbit,Spin-Spin,Magnetic field MRCI
   Miquel Garcia          : C-PCM Hessian, Gaussian charge scheme
   Yang Guo               : DLPNO-NEVPT2, CIM, IAO-localization
   Andreas Hansen         : Spin unrestricted coupled pair/coupled cluster methods
   Benjamin Helmich-Paris : CASSCF linear response (MC-RPA)
   Lee Huntington         : MR-EOM, pCC
   Robert Izsak           : Overlap fitted RIJCOSX, COSX-SCS-MP3, EOM
   Christian Kollmar      : KDIIS, OOCD, Brueckner-CCSD(T), CCSD density
   Simone Kossmann        : Meta GGA functionals, TD-DFT gradient, OOMP2, MP2 Hessian
   Martin Krupicka        : AUTO-CI
   Lucas Lang             : DCDCAS
   Dagmar Lenk            : GEPOL surface, SMD
   Dimitrios Liakos       : Extrapolation schemes; Compound Job, initial MDCI parallelization
   Dimitrios Manganas     : Further ROCIS development; embedding schemes
   Dimitrios Pantazis     : SARC Basis sets
   Taras Petrenko         : DFT Hessian,TD-DFT gradient, ASA, ECA, R-Raman, ABS, FL, XAS/XES, NRVS
   Peter Pinski           : DLPNO-MP2, DLPNO-MP2 Gradient
   Christoph Reimann      : Effective Core Potentials
   Marius Retegan         : Local ZFS, SOC
   Christoph Riplinger    : Optimizer, TS searches, QM/MM, DLPNO-CCSD(T), (RO)-DLPNO pert. Triples
   Tobias Risthaus        : Range-separated hybrids, TD-DFT gradient, RPA, STAB
   Michael Roemelt        : Original ROCIS implementation
   Masaaki Saitow         : Open-shell DLPNO-CCSD energy and density
   Barbara Sandhoefer     : DKH picture change effects
   Avijit Sen             : IP-ROCIS
   Kantharuban Sivalingam : CASSCF convergence, NEVPT2, FIC-MRCI
   Bernardo de Souza      : ESD, SOC TD-DFT
   Georgi Stoychev        : AutoAux, RI-MP2 NMR
   Willem Van den Heuvel  : Paramagnetic NMR
   Boris Wezisla          : Elementary symmetry handling
   Frank Wennmohs         : Technical directorship


 We gratefully acknowledge several colleagues who have allowed us to
 interface, adapt or use parts of their codes:
   Stefan Grimme, W. Hujo, H. Kruse,             : VdW corrections, initial TS optimization,
                  C. Bannwarth                     DFT functionals, gCP, sTDA/sTD-DF
   Ed Valeev, F. Pavosevic, A. Kumar             : LibInt (2-el integral package), F12 methods
   Garnet Chan, S. Sharma, J. Yang, R. Olivares  : DMRG
   Ulf Ekstrom                                   : XCFun DFT Library
   Mihaly Kallay                                 : mrcc  (arbitrary order and MRCC methods)
   Andreas Klamt, Michael Diedenhofen            : otool_cosmo (COSMO solvation model)
   Jiri Pittner, Ondrej Demel                    : Mk-CCSD
   Frank Weinhold                                : gennbo (NPA and NBO analysis)
   Christopher J. Cramer and Donald G. Truhlar   : smd solvation model
   Lars Goerigk                                  : TD-DFT with DH, B97 family of functionals
   V. Asgeirsson, H. Jonsson                     : NEB implementation
   FAccTs GmbH                                   : IRC, NEB, NEB-TS, Multilevel, MM, QM/MM, CI optimization
   S Lehtola, MJT Oliveira, MAL Marques          : LibXC Library


 Your calculation uses the libint2 library for the computation of 2-el integrals
 For citations please refer to: http://libint.valeyev.net

 Your ORCA version has been built with support for libXC version: 4.2.3
 For citations please refer to: https://tddft.org/programs/libxc/

 This ORCA versions uses:
   CBLAS   interface :  Fast vector & matrix operations
   LAPACKE interface :  Fast linear algebra routines


----- Orbital basis set information -----
Your calculation utilizes the basis: def2-SVP
   F. Weigend and R. Ahlrichs, Phys. Chem. Chem. Phys. 7, 3297 (2005).

================================================================================
                                        WARNINGS
                       Please study these warnings very carefully!
================================================================================


WARNING: Geometry Optimization
  ===> : Switching off AutoStart
         For restart on a previous wavefunction, please use MOREAD

INFO   : the flag for use of LIBINT has been found!

================================================================================
                                       INPUT FILE
================================================================================
NAME = runs\methane\inputs\methane.inp
|  1> ! B3LYP def2-SVP Opt Freq TightSCF
|  2> 
|  3> * xyz 0 1
|  4> C    0.000000    0.000000    0.000000
|  5> H    0.629118    0.629118    0.629118
|  6> H   -0.629118   -0.629118    0.629118
|  7> H   -0.629118    0.629118   -0.629118
|  8> H    0.629118   -0.629118   -0.629118
|  9> *
| 10> 
| 11>                          ****END OF INPUT****
================================================================================

                       *****************************
                       * Geometry Optimization Run *
                       *****************************

Geometry optimization settings:
Update method            Update   .... BFGS
Choice of coordinates    CoordSys .... Z-matrix Internals
Initial Hessian          InHess   .... Almoef's Model

Convergence Tolerances:
Energy Change            TolE     ....  5.0000e-06 Eh
Max. Gradient            TolMAXG  ....  3.0000e-04 Eh/bohr
RMS Gradient             TolRMSG  ....  1.0000e-04 Eh/bohr
Max. Displacement        TolMAXD  ....  4.0000e-03 bohr
RMS Displacement         TolRMSD  ....  2.0000e-03 bohr
Strict Convergence                ....  False
------------------------------------------------------------------------------
                        ORCA OPTIMIZATION COORDINATE SETUP
------------------------------------------------------------------------------

The optimization will be done in new redundant internal coordinates
Making redundant internal coordinates   ...  (new redundants) done
Evaluating the initial hessian          ...  (Almloef) done
Evaluating the coordinates              ...  done
Calculating the B-matrix                .... done
Calculating the G-matrix                .... done
Diagonalizing the G-matrix              .... done
The first mode is                       ....    1
The number of degrees of freedom        ....    9

    -----------------------------------------------------------------
                    Redundant Internal Coordinates


    -----------------------------------------------------------------
         Definition                    Initial Value    Approx d2E/dq
    -----------------------------------------------------------------
      1. B(H   1,C   0)                  1.0897         0.360544   
      2. B(H   2,C   0)                  1.0897         0.360544   
      3. B(H   3,C   0)                  1.0897         0.360544   
      4. B(H   4,C   0)                  1.0897         0.360544   
      5. A(H   1,C   0,H   3)          109.4712         0.290952   
      6. A(H   2,C   0,H   3)          109.4712         0.290952   
      7. A(H   1,C   0,H   4)          109.4712         0.290952   
      8. A(H   2,C   0,H   4)          109.4712         0.290952   
      9. A(H   3,C   0,H   4)          109.4712         0.290952   
     10. A(H   1,C   0,H   2)          109.4712         0.290952   
    -----------------------------------------------------------------

Number of atoms                         .... 5
Number of degrees of freedom            .... 10

         *************************************************************
         *                GEOMETRY OPTIMIZATION CYCLE   1            *
         *************************************************************
---------------------------------
CARTESIAN COORDINATES (ANGSTROEM)
---------------------------------
  C      0.000000    0.000000    0.000000
  H      0.629118    0.629118    0.629118
  H     -0.629118   -0.629118    0.629118
  H     -0.629118    0.629118   -0.629118
  H      0.629118   -0.629118   -0.629118

----------------------------
CARTESIAN COORDINATES (A.U.)
----------------------------
  NO LB      ZA    FRAG     MASS         X           Y           Z
   0 C     6.0000    0    12.011    0.000000    0.000000    0.000000
   1 H     1.0000    0     1.008    1.188861    1.188861    1.188861
   2 H     1.0000    0     1.008   -1.188861   -1.188861    1.188861
   3 H     1.0000    0     1.008   -1.188861    1.188861   -1.188861
   4 H     1.0000    0     1.008    1.188861   -1.188861   -1.188861

--------------------------------
INTERNAL COORDINATES (ANGSTROEM)
--------------------------------
 C      0   0   0     0.000000000000     0.00000000     0.00000000
 H      1   0   0     1.089664339956     0.00000000     0.00000000
 H      1   2   0     1.089664339956   109.47122063     0.00000000
 H      1   2   3     1.089664339956   109.47122063   120.00000000
 H      1   2   3     1.089664339956   109.47122063   240.00000000

---------------------------
INTERNAL COORDINATES (A.U.)
---------------------------
 C      0   0   0     0.000000000000     0.00000000     0.00000000
 H      1   0   0     2.059167180417     0.00000000     0.00000000
 H      1   2   0     2.059167180417   109.47122063     0.00000000
 H      1   2   3     2.059167180417   109.47122063   120.00000000
 H      1   2   3     2.059167180417   109.47122063   240.00000000

---------------------
BASIS SET INFORMATION
---------------------
There are 2 groups of distinct atoms

 Group   1 Type C   : 7s4p1d contracted to 3s2p1d pattern {511/31/1}
 Group   2 Type H   : 4s1p contracted to 2s1p pattern {31/1}

Atom   0C    basis set group =>   1
Atom   1H    basis set group =>   2
Atom   2H    basis set group =>   2
Atom   3H    basis set group =>   2
Atom   4H    basis set group =>   2
------------------------------------------------------------------------------
                           ORCA GTO INTEGRAL CALCULATION
------------------------------------------------------------------------------

                         BASIS SET STATISTICS AND STARTUP INFO

 # of primitive gaussian shells          ...   32
 # of primitive gaussian functions       ...   52
 # of contracted shells                  ...   18
 # of contracted basis functions         ...   34
 Highest angular momentum                ...    2
 Maximum contraction depth               ...    5
 Integral package used                   ... LIBINT
 Integral threshhold            Thresh   ...  2.500e-11
 Primitive cut-off              TCut     ...  2.500e-12


------------------------------ INTEGRAL EVALUATION ----------------------------


 * One electron integrals 
 Pre-screening matrix                    ... done
 Shell pair data                         ... done (   0.001 sec)

Timings:
 Total evaluation time               ...     0.007 sec (   0.000 min)
 One electron matrix time            ...     0.016 sec (   0.000 min) =228.6%
 Schwartz matrix evaluation time     ...     0.375 sec (   0.006 min) =5357.1%

-------------------------------------------------------------------------------
                                 ORCA SCF
-------------------------------------------------------------------------------

------------
SCF SETTINGS
------------
Hamiltonian:
 Density Functional     Method          .... DFT(GTOs)
 Exchange Functional    Exchange        .... B88
   X-Alpha parameter    XAlpha          ....  0.666667
   Becke's b parameter  XBeta           ....  0.004200
 Correlation Functional Correlation     .... LYP
 LDA part of GGA corr.  LDAOpt          .... VWN-5
 Gradients option       PostSCFGGA      .... off
 Hybrid DFT is turned on
   Fraction HF Exchange ScalHFX         ....  0.200000
   Scaling of DF-GGA-X  ScalDFX         ....  0.720000
   Scaling of DF-GGA-C  ScalDFC         ....  0.810000
   Scaling of DF-LDA-C  ScalLDAC        ....  1.000000
   Perturbative correction              ....  0.000000
   Density functional embedding theory  .... OFF
   NL short-range parameter             ....  4.800000


General Settings:
 Integral files         IntName         .... runs\methane\inputs\methane
 Hartree-Fock type      HFTyp           .... RHF
 Total Charge           Charge          ....    0
 Multiplicity           Mult            ....    1
 Number of Electrons    NEL             ....   10
 Basis Dimension        Dim             ....   34
 Nuclear Repulsion      ENuc            ....     13.4395278234 Eh

Convergence Acceleration:
 DIIS                   CNVDIIS         .... on
   Start iteration      DIISMaxIt       ....    12
   Startup error        DIISStart       ....  0.200000
   # of expansion vecs  DIISMaxEq       ....     5
   Bias factor          DIISBfac        ....   1.050
   Max. coefficient     DIISMaxC        ....  10.000
 Newton-Raphson         CNVNR           .... off
 SOSCF                  CNVSOSCF        .... on
   Start iteration      SOSCFMaxIt      ....   150
   Startup grad/error   SOSCFStart      ....  0.003300
 Level Shifting         CNVShift        .... on
   Level shift para.    LevelShift      ....    0.2500
   Turn off err/grad.   ShiftErr        ....    0.0010
 Zerner damping         CNVZerner       .... off
 Static damping         CNVDamp         .... on
   Fraction old density DampFac         ....    0.7000
   Max. Damping (<1)    DampMax         ....    0.9800
   Min. Damping (>=0)   DampMin         ....    0.0000
   Turn off err/grad.   DampErr         ....    0.1000
 Fernandez-Rico         CNVRico         .... off

SCF Procedure:
 Maximum # iterations   MaxIter         ....   125
 SCF integral mode      SCFMode         .... Direct
   Integral package                     .... LIBINT
 Reset frequency        DirectResetFreq ....    20
 Integral Threshold     Thresh          ....  2.500e-11 Eh
 Primitive CutOff       TCut            ....  2.500e-12 Eh

Convergence Tolerance:
 Convergence Check Mode ConvCheckMode   .... Total+1el-Energy
 Convergence forced     ConvForced      .... 0
 Energy Change          TolE            ....  1.000e-08 Eh
 1-El. energy change                    ....  1.000e-05 Eh
 Orbital Gradient       TolG            ....  1.000e-05
 Orbital Rotation angle TolX            ....  1.000e-05
 DIIS Error             TolErr          ....  5.000e-07


Diagonalization of the overlap matrix:
Smallest eigenvalue                        ... 1.390e-02
Time for diagonalization                   ...    0.009 sec
Threshold for overlap eigenvalues          ... 1.000e-08
Number of eigenvalues below threshold      ... 0
Time for construction of square roots      ...    0.005 sec
Total time needed                          ...    0.015 sec

-------------------
DFT GRID GENERATION
-------------------

General Integration Accuracy     IntAcc      ...  4.340
Radial Grid Type                 RadialGrid  ... Gauss-Chebyshev
Angular Grid (max. acc.)         AngularGrid ... Lebedev-110
Angular grid pruning method      GridPruning ... 3 (G Style)
Weight generation scheme         WeightScheme... Becke
Basis function cutoff            BFCut       ...    1.0000e-11
Integration weight cutoff        WCut        ...    1.0000e-14
Grids for H and He will be reduced by one unit

# of grid points (after initial pruning)     ...   4832 (   0.0 sec)
# of grid points (after weights+screening)   ...   4636 (   0.0 sec)
nearest neighbour list constructed           ...    0.0 sec
Grid point re-assignment to atoms done       ...    0.0 sec
Grid point division into batches done        ...    0.0 sec
Reduced shell lists constructed in    0.0 sec

Total number of grid points                  ...     4636
Total number of batches                      ...       75
Average number of points per batch           ...       61
Average number of grid points per atom       ...      927
Average number of shells per batch           ...    17.17 (95.39%)
Average number of basis functions per batch  ...    32.28 (94.93%)
Average number of large shells per batch     ...    16.30 (94.94%)
Average number of large basis fcns per batch ...    30.38 (94.13%)
Maximum spatial batch extension              ...  22.36, 19.64, 22.36 au
Average spatial batch extension              ...   5.47,  5.45,  5.68 au

Time for grid setup =    0.039 sec

------------------------------
INITIAL GUESS: MODEL POTENTIAL
------------------------------
Loading Hartree-Fock densities                     ... done
Calculating cut-offs                               ... done
Setting up the integral package                    ... done
Initializing the effective Hamiltonian             ... done
Starting the Coulomb interaction                   ... done (   0.0 sec)
Reading the grid                                   ... done
Mapping shells                                     ... done
Starting the XC term evaluation                    ... done (   0.0 sec)
  promolecular density results
     # of electrons  =     10.001218830
     EX              =     -6.307955333
     EC              =     -0.288581466
     EX+EC           =     -6.596536799
Transforming the Hamiltonian                       ... done (   0.0 sec)
Diagonalizing the Hamiltonian                      ... done (   0.0 sec)
Back transforming the eigenvectors                 ... done (   0.0 sec)
Now organizing SCF variables                       ... done
                      ------------------
                      INITIAL GUESS DONE (   0.4 sec)
                      ------------------
--------------
SCF ITERATIONS
--------------
ITER       Energy         Delta-E        Max-DP      RMS-DP      [F,P]     Damp
               ***  Starting incremental Fock matrix formation  ***
  0    -40.3779853405   0.000000000000 0.08742522  0.00519807  0.1995806 0.7000
  1    -40.4129668329  -0.034981492445 0.05353872  0.00367910  0.1038599 0.7000
                               ***Turning on DIIS***
  2    -40.4271571139  -0.014190280926 0.07326196  0.00610614  0.0385594 0.0000
  3    -40.4455136853  -0.018356571451 0.03651966  0.00236497  0.0586377 0.0000
  4    -40.4518050456  -0.006291360305 0.00676895  0.00072047  0.0148583 0.0000
  5    -40.4522352637  -0.000430218072 0.00217238  0.00025239  0.0037361 0.0000
                      *** Initiating the SOSCF procedure ***
                           *** Shutting down DIIS ***
                      *** Re-Reading the Fockian *** 
                      *** Removing any level shift *** 
ITER      Energy       Delta-E        Grad      Rot      Max-DP    RMS-DP
  6    -40.45226645  -0.0000311858  0.000350  0.000350  0.001130  0.000132
               *** Restarting incremental Fock matrix formation ***
  7    -40.45226894  -0.0000024941  0.000051  0.000051  0.000187  0.000010
  8    -40.45226894   0.0000000023  0.000045  0.000033  0.000077  0.000005
                  ***Gradient check signals convergence***
              ***Rediagonalizing the Fockian in SOSCF/NRSCF***

               *****************************************************
               *                     SUCCESS                       *
               *           SCF CONVERGED AFTER   9 CYCLES          *
               *****************************************************

Setting up the final grid:

General Integration Accuracy     IntAcc      ...  4.670
Radial Grid Type                 RadialGrid  ... Gauss-Chebyshev
Angular Grid (max. acc.)         AngularGrid ... Lebedev-302
Angular grid pruning method      GridPruning ... 3 (G Style)
Weight generation scheme         WeightScheme... Becke
Basis function cutoff            BFCut       ...    1.0000e-11
Integration weight cutoff        WCut        ...    1.0000e-14
Grids for H and He will be reduced by one unit

# of grid points (after initial pruning)     ...  19788 (   0.0 sec)
# of grid points (after weights+screening)   ...  19280 (   0.0 sec)
nearest neighbour list constructed           ...    0.0 sec
Grid point re-assignment to atoms done       ...    0.0 sec
Grid point division into batches done        ...    0.1 sec
Reduced shell lists constructed in    0.1 sec

Total number of grid points                  ...    19280
Total number of batches                      ...      304
Average number of points per batch           ...       63
Average number of grid points per atom       ...     3856
Average number of shells per batch           ...    15.78 (87.67%)
Average number of basis functions per batch  ...    29.41 (86.49%)
Average number of large shells per batch     ...    14.84 (94.06%)
Average number of large basis fcns per batch ...    27.60 (93.85%)
Maximum spatial batch extension              ...  20.64, 20.64, 20.64 au
Average spatial batch extension              ...   3.38,  3.28,  3.27 au

Final grid set up in    0.2 sec
Final integration                            ... done (   0.1 sec)
Change in XC energy                          ...     0.000706587
Integrated number of electrons               ...     9.999956100
Previous integrated no of electrons          ...    10.003138035

----------------
TOTAL SCF ENERGY
----------------

Total Energy       :          -40.45156237 Eh           -1100.74297 eV

Components:
Nuclear Repulsion  :           13.43952782 Eh             365.70814 eV
Electronic Energy  :          -53.89109019 Eh           -1466.45112 eV
One Electron Energy:          -79.76867140 Eh           -2170.61590 eV
Two Electron Energy:           25.87758120 Eh             704.16478 eV

Virial components:
Potential Energy   :          -80.33224547 Eh           -2185.95153 eV
Kinetic Energy     :           39.88068309 Eh            1085.20856 eV
Virial Ratio       :            2.01431468


DFT components:
N(Alpha)           :        4.999978050206 electrons
N(Beta)            :        4.999978050206 electrons
N(Total)           :        9.999956100412 electrons
E(X)               :       -5.193797816896 Eh       
E(C)               :       -0.351197532649 Eh       
E(XC)              :       -5.544995349546 Eh       
DFET-embed. en.    :        0.000000000000 Eh       

---------------
SCF CONVERGENCE
---------------

  Last Energy change         ...   -1.7550e-08  Tolerance :   1.0000e-08
  Last MAX-Density change    ...    1.4959e-06  Tolerance :   1.0000e-07
  Last RMS-Density change    ...    1.5825e-07  Tolerance :   5.0000e-09
  Last Orbital Gradient      ...    4.4240e-07  Tolerance :   1.0000e-05
  Last Orbital Rotation      ...    5.8238e-07  Tolerance :   1.0000e-05

             **** THE GBW FILE WAS UPDATED (runs\methane\inputs\methane.gbw) ****
             **** DENSITY FILE WAS UPDATED (runs\methane\inputs\methane.scfp) ****
             **** ENERGY FILE WAS UPDATED (runs\methane\inputs\methane.en.tmp) ****
             **** THE GBW FILE WAS UPDATED (runs\methane\inputs\methane.gbw) ****
             **** DENSITY FILE WAS UPDATED (runs\methane\inputs\methane.scfp) ****
----------------
ORBITAL ENERGIES
----------------

  NO   OCC          E(Eh)            E(eV) 
   0   2.0000     -10.168628      -276.7024 
   1   2.0000      -0.683373       -18.5955 
   2   2.0000      -0.388497       -10.5715 
   3   2.0000      -0.388497       -10.5715 
   4   2.0000      -0.388497       -10.5715 
   5   0.0000       0.074953         2.0396 
   6   0.0000       0.147755         4.0206 
   7   0.0000       0.147755         4.0206 
   8   0.0000       0.147755         4.0206 
   9   0.0000       0.419713        11.4210 
  10   0.0000       0.419713        11.4210 
  11   0.0000       0.419713        11.4210 
  12   0.0000       0.660065        17.9613 
  13   0.0000       0.684909        18.6373 
  14   0.0000       0.684909        18.6373 
  15   0.0000       0.684909        18.6373 
  16   0.0000       0.783853        21.3297 
  17   0.0000       1.097147        29.8549 
  18   0.0000       1.097147        29.8549 
  19   0.0000       1.539576        41.8940 
  20   0.0000       1.539576        41.8940 
  21   0.0000       1.539576        41.8940 
  22   0.0000       1.766845        48.0783 
  23   0.0000       1.766845        48.0783 
  24   0.0000       1.766845        48.0783 
  25   0.0000       2.139719        58.2247 
  26   0.0000       2.139719        58.2247 
  27   0.0000       2.139719        58.2247 
  28   0.0000       2.535689        68.9996 
  29   0.0000       2.535689        68.9996 
  30   0.0000       2.611059        71.0505 
  31   0.0000       2.914251        79.3008 
  32   0.0000       2.914251        79.3008 
  33   0.0000       2.914251        79.3008 

                    ********************************
                    * MULLIKEN POPULATION ANALYSIS *
                    ********************************

-----------------------
MULLIKEN ATOMIC CHARGES
-----------------------
   0 C :   -0.097115
   1 H :    0.024279
   2 H :    0.024279
   3 H :    0.024279
   4 H :    0.024279
Sum of atomic charges:   -0.0000000

--------------------------------
MULLIKEN REDUCED ORBITAL CHARGES
--------------------------------
  0 C s       :     3.034415  s :     3.034415
      pz      :     1.013571  p :     3.040712
      px      :     1.013571
      py      :     1.013571
      dz2     :     0.000000  d :     0.021988
      dxz     :     0.007329
      dyz     :     0.007329
      dx2y2   :     0.000000
      dxy     :     0.007329
  1 H s       :     0.951451  s :     0.951451
      pz      :     0.008090  p :     0.024270
      px      :     0.008090
      py      :     0.008090
  2 H s       :     0.951451  s :     0.951451
      pz      :     0.008090  p :     0.024270
      px      :     0.008090
      py      :     0.008090
  3 H s       :     0.951451  s :     0.951451
      pz      :     0.008090  p :     0.024270
      px      :     0.008090
      py      :     0.008090
  4 H s       :     0.951451  s :     0.951451
      pz      :     0.008090  p :     0.024270
      px      :     0.008090
      py      :     0.008090


                     *******************************
                     * LOEWDIN POPULATION ANALYSIS *
                     *******************************

----------------------
LOEWDIN ATOMIC CHARGES
----------------------
   0 C :   -0.103438
   1 H :    0.025860
   2 H :    0.025860
   3 H :    0.025860
   4 H :    0.025860

-------------------------------
LOEWDIN REDUCED ORBITAL CHARGES
-------------------------------
  0 C s       :     2.836723  s :     2.836723
      pz      :     1.070352  p :     3.211056
      px      :     1.070352
      py      :     1.070352
      dz2     :     0.000000  d :     0.055658
      dxz     :     0.018553
      dyz     :     0.018553
      dx2y2   :    -0.000000
      dxy     :     0.018553
  1 H s       :     0.909121  s :     0.909121
      pz      :     0.021673  p :     0.065019
      px      :     0.021673
      py      :     0.021673
  2 H s       :     0.909121  s :     0.909121
      pz      :     0.021673  p :     0.065019
      px      :     0.021673
      py      :     0.021673
  3 H s       :     0.909121  s :     0.909121
      pz      :     0.021673  p :     0.065019
      px      :     0.021673
      py      :     0.021673
  4 H s       :     0.909121  s :     0.909121
      pz      :     0.021673  p :     0.065019
      px      :     0.021673
      py      :     0.021673


                      *****************************
                      * MAYER POPULATION ANALYSIS *
                      *****************************

  NA   - Mulliken gross atomic population
  ZA   - Total nuclear charge
  QA   - Mulliken gross atomic charge
  VA   - Mayer's total valence
  BVA  - Mayer's bonded valence
  FA   - Mayer's free valence

  ATOM       NA         ZA         QA         VA         BVA        FA
  0 C      6.0971     6.0000    -0.0971     3.9962     3.9962    -0.0000
  1 H      0.9757     1.0000     0.0243     0.9927     0.9927    -0.0000
  2 H      0.9757     1.0000     0.0243     0.9927     0.9927    -0.0000
  3 H      0.9757     1.0000     0.0243     0.9927     0.9927     0.0000
  4 H      0.9757     1.0000     0.0243     0.9927     0.9927    -0.0000

  Mayer bond orders larger than 0.100000
B(  0-C ,  1-H ) :   0.9991 B(  0-C ,  2-H ) :   0.9991 B(  0-C ,  3-H ) :   0.9991 
B(  0-C ,  4-H ) :   0.9991 

-------
TIMINGS
-------

Total SCF time: 0 days 0 hours 0 min 5 sec 

Total time                  ....       5.960 sec
Sum of individual times     ....       5.221 sec  ( 87.6%)

Fock matrix formation       ....       4.411 sec  ( 74.0%)
  XC integration            ....       0.641 sec  ( 14.5% of F)
    Basis function eval.    ....       0.183 sec  ( 28.5% of XC)
    Density eval.           ....       0.138 sec  ( 21.5% of XC)
    XC-Functional eval.     ....       0.094 sec  ( 14.7% of XC)
    XC-Potential eval.      ....       0.094 sec  ( 14.7% of XC)
Diagonalization             ....       0.004 sec  (  0.1%)
Density matrix formation    ....       0.001 sec  (  0.0%)
Population analysis         ....       0.050 sec  (  0.8%)
Initial guess               ....       0.314 sec  (  5.3%)
Orbital Transformation      ....       0.000 sec  (  0.0%)
Orbital Orthonormalization  ....       0.000 sec  (  0.0%)
DIIS solution               ....       0.186 sec  (  3.1%)
SOSCF solution              ....       0.044 sec  (  0.7%)
Grid generation             ....       0.211 sec  (  3.5%)

-------------------------   --------------------
FINAL SINGLE POINT ENERGY       -40.451562371582
-------------------------   --------------------

------------------------------------------------------------------------------
                         ORCA SCF GRADIENT CALCULATION
------------------------------------------------------------------------------

Gradient of the Kohn-Sham DFT energy:
Kohn-Sham wavefunction type      ... RKS
Hartree-Fock exchange scaling    ...    0.200
Number of operators              ...    1
Number of atoms                  ...    5
Basis set dimensions             ...   34
Integral neglect threshold       ... 2.5e-11
Integral primitive cutoff        ... 2.5e-12

Nuclear repulsion gradient       ... done
One Electron Gradient            ... done
Pre-screening matrix             ... done
Starting the two electron gradient:
Two electron gradient done
Exchange-correlation gradient    ... done

------------------
CARTESIAN GRADIENT
------------------

   1   C   :   -0.000000000   -0.000000000   -0.000000000
   2   H   :   -0.003903963   -0.003903963   -0.003903964
   3   H   :    0.003903963    0.003903964   -0.003903963
   4   H   :    0.003903964   -0.003903964    0.003903964
   5   H   :   -0.003903964    0.003903964    0.003903964

Difference to translation invariance:
           :   -0.0000000000   -0.0000000000   -0.0000000000

Norm of the cartesian gradient     ...    0.0135237269
RMS gradient                       ...    0.0034918113
MAX gradient                       ...    0.0039039640

-------
TIMINGS
-------

Total SCF gradient time            ...        1.224 sec

One electron gradient       ....       0.005 sec  (  0.4%)
Prescreening matrices       ....       0.006 sec  (  0.5%)
Two electron gradient       ....       0.110 sec  (  9.0%)
XC gradient                 ....       0.776 sec  ( 63.4%)
------------------------------------------------------------------------------
                         ORCA GEOMETRY RELAXATION STEP
------------------------------------------------------------------------------

Reading the OPT-File                    .... done
Getting information on internals        .... done
Copying old internal coords+grads       .... done
Making the new internal coordinates     .... (new redundants).... done
Validating the new internal coordinates .... (new redundants).... done
Calculating the B-matrix                .... done
Calculating the G,G- and P matrices     .... done
Transforming gradient to internals      .... done
Projecting the internal gradient        .... done
Number of atoms                         ....   5
Number of internal coordinates          ....  10
Current Energy                          ....   -40.451562372 Eh
Current gradient norm                   ....     0.013523727 Eh/bohr
Maximum allowed component of the step   ....  0.300
Current trust radius                    ....  0.300
Evaluating the initial hessian          ....  (Almloef) done
Projecting the Hessian                  .... done
Forming the augmented Hessian           .... done
Diagonalizing the augmented Hessian     .... done
Last element of RFO vector              ....  0.999299240
Lowest eigenvalues of augmented Hessian:
 -0.000506552  0.290952118  0.290952118  0.290952118  0.290952118
Length of the computed step             ....  0.037456570
The final length of the internal step   ....  0.037456570
Converting the step to cartesian space:
 Initial RMS(Int)=    0.0118448075
Transforming coordinates:
 Iter   0:  RMS(Cart)=    0.0096712448 RMS(Int)=    0.0118448075
 Iter   1:  RMS(Cart)=    0.0000000000 RMS(Int)=    0.0000000000
done
Storing new coordinates                 .... done

                                .--------------------.
          ----------------------|Geometry convergence|-------------------------
          Item                value                   Tolerance       Converged
          ---------------------------------------------------------------------
          RMS gradient        0.0042765779            0.0001000000      NO
          MAX gradient        0.0067618638            0.0003000000      NO
          RMS step            0.0118448075            0.0020000000      NO
          MAX step            0.0187282860            0.0040000000      NO
          ........................................................
          Max(Bonds)      0.0099      Max(Angles)    0.00
          Max(Dihed)        0.00      Max(Improp)    0.00
          ---------------------------------------------------------------------

The optimization has not yet converged - more geometry cycles are needed


    ---------------------------------------------------------------------------
                         Redundant Internal Coordinates
                            (Angstroem and degrees)

        Definition                    Value    dE/dq     Step     New-Value
    ----------------------------------------------------------------------------
     1. B(H   1,C   0)                1.0897 -0.006762  0.0099    1.0996   
     2. B(H   2,C   0)                1.0897 -0.006762  0.0099    1.0996   
     3. B(H   3,C   0)                1.0897 -0.006762  0.0099    1.0996   
     4. B(H   4,C   0)                1.0897 -0.006762  0.0099    1.0996   
     5. A(H   1,C   0,H   3)          109.47  0.000000   -0.00    109.47   
     6. A(H   2,C   0,H   3)          109.47  0.000000   -0.00    109.47   
     7. A(H   1,C   0,H   4)          109.47 -0.000000    0.00    109.47   
     8. A(H   2,C   0,H   4)          109.47  0.000000   -0.00    109.47   
     9. A(H   3,C   0,H   4)          109.47 -0.000000    0.00    109.47   
    10. A(H   1,C   0,H   2)          109.47  0.000000   -0.00    109.47   
    ----------------------------------------------------------------------------

         *************************************************************
         *                GEOMETRY OPTIMIZATION CYCLE   2            *
         *************************************************************
---------------------------------
CARTESIAN COORDINATES (ANGSTROEM)
---------------------------------
  C      0.000000    0.000000   -0.000000
  H      0.634840    0.634840    0.634840
  H     -0.634840   -0.634840    0.634840
  H     -0.634840    0.634840   -0.634840
  H      0.634840   -0.634840   -0.634840

----------------------------
CARTESIAN COORDINATES (A.U.)
----------------------------
  NO LB      ZA    FRAG     MASS         X           Y           Z
   0 C     6.0000    0    12.011    0.000000    0.000000   -0.000000
   1 H     1.0000    0     1.008    1.199674    1.199674    1.199674
   2 H     1.0000    0     1.008   -1.199674   -1.199674    1.199674
   3 H     1.0000    0     1.008   -1.199674    1.199674   -1.199674
   4 H     1.0000    0     1.008    1.199674   -1.199674   -1.199674

--------------------------------
INTERNAL COORDINATES (ANGSTROEM)
--------------------------------
 C      0   0   0     0.000000000000     0.00000000     0.00000000
 H      1   0   0     1.099574921019     0.00000000     0.00000000
 H      1   2   0     1.099574921198   109.47122058     0.00000000
 H      1   2   3     1.099574922043   109.47122063   119.99999995
 H      1   2   3     1.099574921842   109.47122070   240.00000009

---------------------------
INTERNAL COORDINATES (A.U.)
---------------------------
 C      0   0   0     0.000000000000     0.00000000     0.00000000
 H      1   0   0     2.077895464455     0.00000000     0.00000000
 H      1   2   0     2.077895464793   109.47122058     0.00000000
 H      1   2   3     2.077895466389   109.47122063   119.99999995
 H      1   2   3     2.077895466010   109.47122070   240.00000009


Diagonalization of the overlap matrix:
Smallest eigenvalue                        ... 1.429e-02
Time for diagonalization                   ...    0.003 sec
Threshold for overlap eigenvalues          ... 1.000e-08
Number of eigenvalues below threshold      ... 0
Time for construction of square roots      ...    0.001 sec
Total time needed                          ...    0.004 sec

-------------------
DFT GRID GENERATION
-------------------

General Integration Accuracy     IntAcc      ...  4.340
Radial Grid Type                 RadialGrid  ... Gauss-Chebyshev
Angular Grid (max. acc.)         AngularGrid ... Lebedev-110
Angular grid pruning method      GridPruning ... 3 (G Style)
Weight generation scheme         WeightScheme... Becke
Basis function cutoff            BFCut       ...    1.0000e-11
Integration weight cutoff        WCut        ...    1.0000e-14
Grids for H and He will be reduced by one unit

# of grid points (after initial pruning)     ...   4832 (   0.0 sec)
# of grid points (after weights+screening)   ...   4636 (   0.0 sec)
nearest neighbour list constructed           ...    0.0 sec
Grid point re-assignment to atoms done       ...    0.0 sec
Grid point division into batches done        ...    0.0 sec
Reduced shell lists constructed in    0.0 sec

Total number of grid points                  ...     4636
Total number of batches                      ...       75
Average number of points per batch           ...       61
Average number of grid points per atom       ...      927
Average number of shells per batch           ...    17.03 (94.59%)
Average number of basis functions per batch  ...    32.00 (94.12%)
Average number of large shells per batch     ...    16.24 (95.36%)
Average number of large basis fcns per batch ...    30.24 (94.49%)
Maximum spatial batch extension              ...  22.81, 20.99, 22.81 au
Average spatial batch extension              ...   5.45,  5.32,  5.34 au

Time for grid setup =    0.037 sec

--------------
SCF ITERATIONS
--------------
ITER       Energy         Delta-E        Max-DP      RMS-DP      [F,P]     Damp
               ***  Starting incremental Fock matrix formation  ***
  0    -40.4524688619   0.000000000000 0.00197965  0.00012310  0.0034506 0.7000
                      *** Initiating the SOSCF procedure ***
                      *** Re-Reading the Fockian *** 
                      *** Removing any level shift *** 
ITER      Energy       Delta-E        Grad      Rot      Max-DP    RMS-DP
  1    -40.45248606  -0.0000172018  0.000460  0.000460  0.005198  0.000333
               *** Restarting incremental Fock matrix formation ***
  2    -40.45251687  -0.0000308105  0.000805  0.000884  0.002876  0.000169
  3    -40.45251549   0.0000013853  0.000787  0.000490  0.001363  0.000091
  4    -40.45252075  -0.0000052655  0.000006  0.000006  0.000020  0.000001
                 **** Energy Check signals convergence ****
              ***Rediagonalizing the Fockian in SOSCF/NRSCF***

               *****************************************************
               *                     SUCCESS                       *
               *           SCF CONVERGED AFTER   5 CYCLES          *
               *****************************************************

Setting up the final grid:

General Integration Accuracy     IntAcc      ...  4.670
Radial Grid Type                 RadialGrid  ... Gauss-Chebyshev
Angular Grid (max. acc.)         AngularGrid ... Lebedev-302
Angular grid pruning method      GridPruning ... 3 (G Style)
Weight generation scheme         WeightScheme... Becke
Basis function cutoff            BFCut       ...    1.0000e-11
Integration weight cutoff        WCut        ...    1.0000e-14
Grids for H and He will be reduced by one unit

# of grid points (after initial pruning)     ...  19788 (   0.0 sec)
# of grid points (after weights+screening)   ...  19280 (   0.0 sec)
nearest neighbour list constructed           ...    0.0 sec
Grid point re-assignment to atoms done       ...    0.0 sec
Grid point division into batches done        ...    0.1 sec
Reduced shell lists constructed in    0.1 sec

Total number of grid points                  ...    19280
Total number of batches                      ...      304
Average number of points per batch           ...       63
Average number of grid points per atom       ...     3856
Average number of shells per batch           ...    15.72 (87.32%)
Average number of basis functions per batch  ...    29.31 (86.21%)
Average number of large shells per batch     ...    14.82 (94.31%)
Average number of large basis fcns per batch ...    27.60 (94.17%)
Maximum spatial batch extension              ...  20.64, 20.64, 18.43 au
Average spatial batch extension              ...   3.32,  3.24,  3.31 au

Final grid set up in    0.2 sec
Final integration                            ... done (   0.2 sec)
Change in XC energy                          ...     0.000705655
Integrated number of electrons               ...     9.999952755
Previous integrated no of electrons          ...    10.003236056
Total Energy       :          -40.45181510 Eh           -1100.74985 eV
  Last Energy change         ...   -1.7938e-10  Tolerance :   1.0000e-08
  Last MAX-Density change    ...    1.6388e-06  Tolerance :   1.0000e-07
             **** THE GBW FILE WAS UPDATED (runs\methane\inputs\methane.gbw) ****
             **** DENSITY FILE WAS UPDATED (runs\methane\inputs\methane.scfp) ****
             **** ENERGY FILE WAS UPDATED (runs\methane\inputs\methane.en.tmp) ****
             **** THE GBW FILE WAS UPDATED (runs\methane\inputs\methane.gbw) ****
             **** DENSITY FILE WAS UPDATED (runs\methane\inputs\methane.scfp) ****
Total SCF time: 0 days 0 hours 0 min 3 sec 

-------------------------   --------------------
FINAL SINGLE POINT ENERGY       -40.451815099954
-------------------------   --------------------

------------------------------------------------------------------------------
                         ORCA SCF GRADIENT CALCULATION
------------------------------------------------------------------------------

Gradient of the Kohn-Sham DFT energy:
Kohn-Sham wavefunction type      ... RKS
Hartree-Fock exchange scaling    ...    0.200
Number of operators              ...    1
Number of atoms                  ...    5
Basis set dimensions             ...   34
Integral neglect threshold       ... 2.5e-11
Integral primitive cutoff        ... 2.5e-12

Nuclear repulsion gradient       ... done
One Electron Gradient            ... done
Pre-screening matrix             ... done
Starting the two electron gradient:
Two electron gradient done
Exchange-correlation gradient    ... done

------------------
CARTESIAN GRADIENT
------------------

   1   C   :   -0.000000000   -0.000000000    0.000000000
   2   H   :   -0.000042494   -0.000042494   -0.000042493
   3   H   :    0.000042494    0.000042494   -0.000042494
   4   H   :    0.000042494   -0.000042494    0.000042494
   5   H   :   -0.000042494    0.000042493    0.000042494

Difference to translation invariance:
           :    0.0000000000   -0.0000000000    0.0000000000

Norm of the cartesian gradient     ...    0.0001472030
RMS gradient                       ...    0.0000380076
MAX gradient                       ...    0.0000424945

-------
TIMINGS
-------

Total SCF gradient time            ...        1.203 sec

One electron gradient       ....       0.005 sec  (  0.4%)
Prescreening matrices       ....       0.007 sec  (  0.6%)
Two electron gradient       ....       0.108 sec  (  9.0%)
XC gradient                 ....       0.763 sec  ( 63.4%)
------------------------------------------------------------------------------
                         ORCA GEOMETRY RELAXATION STEP
------------------------------------------------------------------------------

Reading the OPT-File                    .... done
Getting information on internals        .... done
Copying old internal coords+grads       .... done
Making the new internal coordinates     .... (new redundants).... done
Validating the new internal coordinates .... (new redundants).... done
Calculating the B-matrix                .... done
Calculating the G,G- and P matrices     .... done
Transforming gradient to internals      .... done
Projecting the internal gradient        .... done
Number of atoms                         ....   5
Number of internal coordinates          ....  10
Current Energy                          ....   -40.451815100 Eh
Current gradient norm                   ....     0.000147203 Eh/bohr
Maximum allowed component of the step   ....  0.300
Current trust radius                    ....  0.300
Updating the Hessian (BFGS)             .... done
Forming the augmented Hessian           .... done
Diagonalizing the augmented Hessian     .... done
Last element of RFO vector              ....  0.999999915
Lowest eigenvalues of augmented Hessian:
 -0.000000061  0.290952118  0.290952118  0.290952118  0.290952118
Length of the computed step             ....  0.000412194
The final length of the internal step   ....  0.000412194
Converting the step to cartesian space:
 Initial RMS(Int)=    0.0001303471
Transforming coordinates:
 Iter   0:  RMS(Cart)=    0.0001064279 RMS(Int)=    0.0001303471
 Iter   1:  RMS(Cart)=    0.0000000000 RMS(Int)=    0.0000000000
done
Storing new coordinates                 .... done

                                .--------------------.
          ----------------------|Geometry convergence|-------------------------
          Item                value                   Tolerance       Converged
          ---------------------------------------------------------------------
          Energy change      -0.0002527284            0.0000050000      NO
          RMS gradient        0.0000465497            0.0001000000      YES
          MAX gradient        0.0000736023            0.0003000000      YES
          RMS step            0.0001303471            0.0020000000      YES
          MAX step            0.0002060991            0.0040000000      YES
          ........................................................
          Max(Bonds)      0.0001      Max(Angles)    0.00
          Max(Dihed)        0.00      Max(Improp)    0.00
          ---------------------------------------------------------------------

       Everything but the energy has converged. However, the energy
       appears to be close enough to convergence to make sure that the
       final evaluation at the new geometry represents the equilibrium energy.
       Convergence will therefore be signaled now


                    ***********************HURRAY********************
                    ***        THE OPTIMIZATION HAS CONVERGED     ***
                    *************************************************


    ---------------------------------------------------------------------------
                         Redundant Internal Coordinates

                          --- Optimized Parameters ---  
                            (Angstroem and degrees)

        Definition                    OldVal   dE/dq     Step     FinalVal
    ----------------------------------------------------------------------------
     1. B(H   1,C   0)                1.0996 -0.000074  0.0001    1.0997   
     2. B(H   2,C   0)                1.0996 -0.000074  0.0001    1.0997   
     3. B(H   3,C   0)                1.0996 -0.000074  0.0001    1.0997   
     4. B(H   4,C   0)                1.0996 -0.000074  0.0001    1.0997   
     5. A(H   1,C   0,H   3)          109.47 -0.000000    0.00    109.47   
     6. A(H   2,C   0,H   3)          109.47  0.000000   -0.00    109.47   
     7. A(H   1,C   0,H   4)          109.47  0.000000   -0.00    109.47   
     8. A(H   2,C   0,H   4)          109.47 -0.000000    0.00    109.47   
     9. A(H   3,C   0,H   4)          109.47  0.000000   -0.00    109.47   
    10. A(H   1,C   0,H   2)          109.47 -0.000000    0.00    109.47   
    ----------------------------------------------------------------------------
                 *******************************************************
                 *** FINAL ENERGY EVALUATION AT THE STATIONARY POINT ***
                 ***               (AFTER    2 CYCLES)               ***
                 *******************************************************
---------------------------------
CARTESIAN COORDINATES (ANGSTROEM)
---------------------------------
  C      0.000000    0.000000   -0.000000
  H      0.634903    0.634903    0.634903
  H     -0.634903   -0.634903    0.634903
  H     -0.634903    0.634903   -0.634903
  H      0.634903   -0.634903   -0.634903

----------------------------
CARTESIAN COORDINATES (A.U.)
----------------------------
  NO LB      ZA    FRAG     MASS         X           Y           Z
   0 C     6.0000    0    12.011    0.000000    0.000000   -0.000000
   1 H     1.0000    0     1.008    1.199792    1.199792    1.199792
   2 H     1.0000    0     1.008   -1.199792   -1.199792    1.199792
   3 H     1.0000    0     1.008   -1.199792    1.199792   -1.199792
   4 H     1.0000    0     1.008    1.199792   -1.199792   -1.199792

--------------------------------
INTERNAL COORDINATES (ANGSTROEM)
--------------------------------
 C      0   0   0     0.000000000000     0.00000000     0.00000000
 H      1   0   0     1.099683982520     0.00000000     0.00000000
 H      1   2   0     1.099683984139   109.47122070     0.00000000
 H      1   2   3     1.099683983318   109.47122065   120.00000002
 H      1   2   3     1.099683983082   109.47122056   240.00000006

---------------------------
INTERNAL COORDINATES (A.U.)
---------------------------
 C      0   0   0     0.000000000000     0.00000000     0.00000000
 H      1   0   0     2.078101560823     0.00000000     0.00000000
 H      1   2   0     2.078101563882   109.47122070     0.00000000
 H      1   2   3     2.078101562330   109.47122065   120.00000002
 H      1   2   3     2.078101561885   109.47122056   240.00000006

---------------------
BASIS SET INFORMATION
---------------------
There are 2 groups of distinct atoms

 Group   1 Type C   : 7s4p1d contracted to 3s2p1d pattern {511/31/1}
 Group   2 Type H   : 4s1p contracted to 2s1p pattern {31/1}

Atom   0C    basis set group =>   1
Atom   1H    basis set group =>   2
Atom   2H    basis set group =>   2
Atom   3H    basis set group =>   2
Atom   4H    basis set group =>   2
------------------------------------------------------------------------------
                           ORCA GTO INTEGRAL CALCULATION
------------------------------------------------------------------------------

                         BASIS SET STATISTICS AND STARTUP INFO

 # of primitive gaussian shells          ...   32
 # of primitive gaussian functions       ...   52
 # of contracted shells                  ...   18
 # of contracted basis functions         ...   34
 Highest angular momentum                ...    2
 Maximum contraction depth               ...    5
 Integral package used                   ... LIBINT
 Integral threshhold            Thresh   ...  2.500e-11
 Primitive cut-off              TCut     ...  2.500e-12


------------------------------ INTEGRAL EVALUATION ----------------------------


 * One electron integrals 
 Pre-screening matrix                    ... done
 Shell pair data                         ... done (   0.000 sec)

Timings:
 Total evaluation time               ...     0.004 sec (   0.000 min)
 One electron matrix time            ...     0.019 sec (   0.000 min) =475.0%
 Schwartz matrix evaluation time     ...     0.223 sec (   0.004 min) =5575.0%

-------------------------------------------------------------------------------
                                 ORCA SCF
-------------------------------------------------------------------------------

------------
SCF SETTINGS
------------
Hamiltonian:
 Density Functional     Method          .... DFT(GTOs)
 Exchange Functional    Exchange        .... B88
   X-Alpha parameter    XAlpha          ....  0.666667
   Becke's b parameter  XBeta           ....  0.004200
 Correlation Functional Correlation     .... LYP
 LDA part of GGA corr.  LDAOpt          .... VWN-5
 Gradients option       PostSCFGGA      .... off
 Hybrid DFT is turned on
   Fraction HF Exchange ScalHFX         ....  0.200000
   Scaling of DF-GGA-X  ScalDFX         ....  0.720000
   Scaling of DF-GGA-C  ScalDFC         ....  0.810000
   Scaling of DF-LDA-C  ScalLDAC        ....  1.000000
   Perturbative correction              ....  0.000000
   Density functional embedding theory  .... OFF
   NL short-range parameter             ....  4.800000


General Settings:
 Integral files         IntName         .... runs\methane\inputs\methane
 Hartree-Fock type      HFTyp           .... RHF
 Total Charge           Charge          ....    0
 Multiplicity           Mult            ....    1
 Number of Electrons    NEL             ....   10
 Basis Dimension        Dim             ....   34
 Nuclear Repulsion      ENuc            ....     13.3170751214 Eh

Convergence Acceleration:
 DIIS                   CNVDIIS         .... on
   Start iteration      DIISMaxIt       ....    12
   Startup error        DIISStart       ....  0.200000
   # of expansion vecs  DIISMaxEq       ....     5
   Bias factor          DIISBfac        ....   1.050
   Max. coefficient     DIISMaxC        ....  10.000
 Newton-Raphson         CNVNR           .... off
 SOSCF                  CNVSOSCF        .... on
   Start iteration      SOSCFMaxIt      ....   150
   Startup grad/error   SOSCFStart      ....  0.003300
 Level Shifting         CNVShift        .... on
   Level shift para.    LevelShift      ....    0.2500
   Turn off err/grad.   ShiftErr        ....    0.0010
 Zerner damping         CNVZerner       .... off
 Static damping         CNVDamp         .... on
   Fraction old density DampFac         ....    0.7000
   Max. Damping (<1)    DampMax         ....    0.9800
   Min. Damping (>=0)   DampMin         ....    0.0000
   Turn off err/grad.   DampErr         ....    0.1000
 Fernandez-Rico         CNVRico         .... off

SCF Procedure:
 Maximum # iterations   MaxIter         ....   125
 SCF integral mode      SCFMode         .... Direct
   Integral package                     .... LIBINT
 Reset frequency        DirectResetFreq ....    20
 Integral Threshold     Thresh          ....  2.500e-11 Eh
 Primitive CutOff       TCut            ....  2.500e-12 Eh

Convergence Tolerance:
 Convergence Check Mode ConvCheckMode   .... Total+1el-Energy
 Convergence forced     ConvForced      .... 0
 Energy Change          TolE            ....  1.000e-08 Eh
 1-El. energy change                    ....  1.000e-05 Eh
 Orbital Gradient       TolG            ....  1.000e-05
 Orbital Rotation angle TolX            ....  1.000e-05
 DIIS Error             TolErr          ....  5.000e-07


Diagonalization of the overlap matrix:
Smallest eigenvalue                        ... 1.429e-02
Time for diagonalization                   ...    0.003 sec
Threshold for overlap eigenvalues          ... 1.000e-08
Number of eigenvalues below threshold      ... 0
Time for construction of square roots      ...    0.002 sec
Total time needed                          ...    0.005 sec

---------------------
INITIAL GUESS: MOREAD
---------------------
Guess MOs are being read from file: runs\methane\inputs\methane.gbw
Input Geometry matches current geometry (good)
Input basis set matches current basis set (good)
MOs were renormalized
MOs were reorthogonalized (Cholesky)
                      ------------------
                      INITIAL GUESS DONE (   0.0 sec)
                      ------------------
-------------------
DFT GRID GENERATION
-------------------

General Integration Accuracy     IntAcc      ...  4.340
Radial Grid Type                 RadialGrid  ... Gauss-Chebyshev
Angular Grid (max. acc.)         AngularGrid ... Lebedev-110
Angular grid pruning method      GridPruning ... 3 (G Style)
Weight generation scheme         WeightScheme... Becke
Basis function cutoff            BFCut       ...    1.0000e-11
Integration weight cutoff        WCut        ...    1.0000e-14
Grids for H and He will be reduced by one unit

# of grid points (after initial pruning)     ...   4832 (   0.0 sec)
# of grid points (after weights+screening)   ...   4636 (   0.0 sec)
nearest neighbour list constructed           ...    0.0 sec
Grid point re-assignment to atoms done       ...    0.0 sec
Grid point division into batches done        ...    0.0 sec
Reduced shell lists constructed in    0.0 sec

Total number of grid points                  ...     4636
Total number of batches                      ...       76
Average number of points per batch           ...       61
Average number of grid points per atom       ...      927
Average number of shells per batch           ...    17.13 (95.17%)
Average number of basis functions per batch  ...    32.30 (95.00%)
Average number of large shells per batch     ...    16.31 (95.22%)
Average number of large basis fcns per batch ...    30.42 (94.17%)
Maximum spatial batch extension              ...  18.85, 18.85, 22.36 au
Average spatial batch extension              ...   5.50,  5.15,  5.58 au

Time for grid setup =    0.071 sec

--------------
SCF ITERATIONS
--------------
ITER       Energy         Delta-E        Max-DP      RMS-DP      [F,P]     Damp
               ***  Starting incremental Fock matrix formation  ***
                      *** Initiating the SOSCF procedure ***
                      *** Re-Reading the Fockian *** 
                      *** Removing any level shift *** 
ITER      Energy       Delta-E        Grad      Rot      Max-DP    RMS-DP
  0    -40.45252073 -40.4525207275  0.000039  0.000039  0.000072  0.000004
               *** Restarting incremental Fock matrix formation ***
  1    -40.45252073  -0.0000000056  0.000013  0.000011  0.000040  0.000002
  2    -40.45252073   0.0000000000  0.000008  0.000006  0.000014  0.000001
                 **** Energy Check signals convergence ****
              ***Rediagonalizing the Fockian in SOSCF/NRSCF***

               *****************************************************
               *                     SUCCESS                       *
               *           SCF CONVERGED AFTER   3 CYCLES          *
               *****************************************************

Setting up the final grid:

General Integration Accuracy     IntAcc      ...  4.670
Radial Grid Type                 RadialGrid  ... Gauss-Chebyshev
Angular Grid (max. acc.)         AngularGrid ... Lebedev-302
Angular grid pruning method      GridPruning ... 3 (G Style)
Weight generation scheme         WeightScheme... Becke
Basis function cutoff            BFCut       ...    1.0000e-11
Integration weight cutoff        WCut        ...    1.0000e-14
Grids for H and He will be reduced by one unit

# of grid points (after initial pruning)     ...  19788 (   0.0 sec)
# of grid points (after weights+screening)   ...  19280 (   0.0 sec)
nearest neighbour list constructed           ...    0.0 sec
Grid point re-assignment to atoms done       ...    0.0 sec
Grid point division into batches done        ...    0.1 sec
Reduced shell lists constructed in    0.1 sec

Total number of grid points                  ...    19280
Total number of batches                      ...      304
Average number of points per batch           ...       63
Average number of grid points per atom       ...     3856
Average number of shells per batch           ...    15.75 (87.50%)
Average number of basis functions per batch  ...    29.40 (86.48%)
Average number of large shells per batch     ...    14.81 (94.03%)
Average number of large basis fcns per batch ...    27.57 (93.77%)
Maximum spatial batch extension              ...  20.64, 20.64, 20.64 au
Average spatial batch extension              ...   3.36,  3.34,  3.30 au

Final grid set up in    0.2 sec
Final integration                            ... done (   0.1 sec)
Change in XC energy                          ...     0.000705616
Integrated number of electrons               ...     9.999952726
Previous integrated no of electrons          ...    10.003237028

----------------
TOTAL SCF ENERGY
----------------

Total Energy       :          -40.45181512 Eh           -1100.74985 eV

Components:
Nuclear Repulsion  :           13.31707512 Eh             362.37604 eV
Electronic Energy  :          -53.76889024 Eh           -1463.12589 eV
One Electron Energy:          -79.54040459 Eh           -2164.40445 eV
Two Electron Energy:           25.77151435 Eh             701.27856 eV

Virial components:
Potential Energy   :          -80.28373573 Eh           -2184.63151 eV
Kinetic Energy     :           39.83192061 Eh            1083.88166 eV
Virial Ratio       :            2.01556276


DFT components:
N(Alpha)           :        4.999976363034 electrons
N(Beta)            :        4.999976363034 electrons
N(Total)           :        9.999952726068 electrons
E(X)               :       -5.183257166179 Eh       
E(C)               :       -0.350544492556 Eh       
E(XC)              :       -5.533801658735 Eh       
DFET-embed. en.    :        0.000000000000 Eh       

---------------
SCF CONVERGENCE
---------------

  Last Energy change         ...   -6.3101e-10  Tolerance :   1.0000e-08
  Last MAX-Density change    ...    4.5960e-07  Tolerance :   1.0000e-07
  Last RMS-Density change    ...    3.6272e-08  Tolerance :   5.0000e-09
  Last Orbital Gradient      ...    1.8377e-07  Tolerance :   1.0000e-05
  Last Orbital Rotation      ...    1.6423e-07  Tolerance :   1.0000e-05

             **** THE GBW FILE WAS UPDATED (runs\methane\inputs\methane.gbw) ****
             **** DENSITY FILE WAS UPDATED (runs\methane\inputs\methane.scfp) ****
             **** ENERGY FILE WAS UPDATED (runs\methane\inputs\methane.en.tmp) ****
             **** THE GBW FILE WAS UPDATED (runs\methane\inputs\methane.gbw) ****
             **** DENSITY FILE WAS UPDATED (runs\methane\inputs\methane.scfp) ****
----------------
ORBITAL ENERGIES
----------------

  NO   OCC          E(Eh)            E(eV) 
   0   2.0000     -10.172510      -276.8081 
   1   2.0000      -0.680308       -18.5121 
   2   2.0000      -0.386830       -10.5262 
   3   2.0000      -0.386830       -10.5262 
   4   2.0000      -0.386830       -10.5262 
   5   0.0000       0.073424         1.9980 
   6   0.0000       0.145520         3.9598 
   7   0.0000       0.145520         3.9598 
   8   0.0000       0.145520         3.9598 
   9   0.0000       0.420375        11.4390 
  10   0.0000       0.420375        11.4390 
  11   0.0000       0.420375        11.4390 
  12   0.0000       0.652420        17.7533 
  13   0.0000       0.679628        18.4936 
  14   0.0000       0.679628        18.4936 
  15   0.0000       0.679628        18.4936 
  16   0.0000       0.777634        21.1605 
  17   0.0000       1.098482        29.8912 
  18   0.0000       1.098482        29.8912 
  19   0.0000       1.532719        41.7074 
  20   0.0000       1.532719        41.7074 
  21   0.0000       1.532719        41.7074 
  22   0.0000       1.756349        47.7927 
  23   0.0000       1.756349        47.7927 
  24   0.0000       1.756349        47.7927 
  25   0.0000       2.125774        57.8453 
  26   0.0000       2.125774        57.8453 
  27   0.0000       2.125774        57.8453 
  28   0.0000       2.519099        68.5482 
  29   0.0000       2.519099        68.5482 
  30   0.0000       2.581992        70.2596 
  31   0.0000       2.897744        78.8516 
  32   0.0000       2.897744        78.8516 
  33   0.0000       2.897744        78.8516 

                    ********************************
                    * MULLIKEN POPULATION ANALYSIS *
                    ********************************

-----------------------
MULLIKEN ATOMIC CHARGES
-----------------------
   0 C :   -0.109987
   1 H :    0.027497
   2 H :    0.027497
   3 H :    0.027497
   4 H :    0.027497
Sum of atomic charges:   -0.0000000

--------------------------------
MULLIKEN REDUCED ORBITAL CHARGES
--------------------------------
  0 C s       :     3.053506  s :     3.053506
      pz      :     1.011709  p :     3.035126
      px      :     1.011709
      py      :     1.011709
      dz2     :     0.000000  d :     0.021355
      dxz     :     0.007118
      dyz     :     0.007118
      dx2y2   :     0.000000
      dxy     :     0.007118
  1 H s       :     0.948825  s :     0.948825
      pz      :     0.007893  p :     0.023678
      px      :     0.007893
      py      :     0.007893
  2 H s       :     0.948825  s :     0.948825
      pz      :     0.007893  p :     0.023678
      px      :     0.007893
      py      :     0.007893
  3 H s       :     0.948825  s :     0.948825
      pz      :     0.007893  p :     0.023678
      px      :     0.007893
      py      :     0.007893
  4 H s       :     0.948825  s :     0.948825
      pz      :     0.007893  p :     0.023678
      px      :     0.007893
      py      :     0.007893


                     *******************************
                     * LOEWDIN POPULATION ANALYSIS *
                     *******************************

----------------------
LOEWDIN ATOMIC CHARGES
----------------------
   0 C :   -0.107953
   1 H :    0.026988
   2 H :    0.026988
   3 H :    0.026988
   4 H :    0.026988

-------------------------------
LOEWDIN REDUCED ORBITAL CHARGES
-------------------------------
  0 C s       :     2.847394  s :     2.847394
      pz      :     1.068844  p :     3.206531
      px      :     1.068844
      py      :     1.068844
      dz2     :     0.000000  d :     0.054029
      dxz     :     0.018010
      dyz     :     0.018010
      dx2y2   :     0.000000
      dxy     :     0.018010
  1 H s       :     0.909488  s :     0.909488
      pz      :     0.021174  p :     0.063523
      px      :     0.021174
      py      :     0.021174
  2 H s       :     0.909488  s :     0.909488
      pz      :     0.021174  p :     0.063523
      px      :     0.021174
      py      :     0.021174
  3 H s       :     0.909488  s :     0.909488
      pz      :     0.021174  p :     0.063523
      px      :     0.021174
      py      :     0.021174
  4 H s       :     0.909488  s :     0.909488
      pz      :     0.021174  p :     0.063523
      px      :     0.021174
      py      :     0.021174


                      *****************************
                      * MAYER POPULATION ANALYSIS *
                      *****************************

  NA   - Mulliken gross atomic population
  ZA   - Total nuclear charge
  QA   - Mulliken gross atomic charge
  VA   - Mayer's total valence
  BVA  - Mayer's bonded valence
  FA   - Mayer's free valence

  ATOM       NA         ZA         QA         VA         BVA        FA
  0 C      6.1100     6.0000    -0.1100     3.9951     3.9951     0.0000
  1 H      0.9725     1.0000     0.0275     0.9914     0.9914    -0.0000
  2 H      0.9725     1.0000     0.0275     0.9914     0.9914    -0.0000
  3 H      0.9725     1.0000     0.0275     0.9914     0.9914    -0.0000
  4 H      0.9725     1.0000     0.0275     0.9914     0.9914    -0.0000

  Mayer bond orders larger than 0.100000
B(  0-C ,  1-H ) :   0.9988 B(  0-C ,  2-H ) :   0.9988 B(  0-C ,  3-H ) :   0.9988 
B(  0-C ,  4-H ) :   0.9988 

-------
TIMINGS
-------

Total SCF time: 0 days 0 hours 0 min 2 sec 

Total time                  ....       2.623 sec
Sum of individual times     ....       1.918 sec  ( 73.1%)

Fock matrix formation       ....       1.603 sec  ( 61.1%)
  XC integration            ....       0.338 sec  ( 21.1% of F)
    Basis function eval.    ....       0.104 sec  ( 30.8% of XC)
    Density eval.           ....       0.069 sec  ( 20.4% of XC)
    XC-Functional eval.     ....       0.047 sec  ( 13.9% of XC)
    XC-Potential eval.      ....       0.053 sec  ( 15.7% of XC)
Diagonalization             ....       0.001 sec  (  0.0%)
Density matrix formation    ....       0.000 sec  (  0.0%)
Population analysis         ....       0.046 sec  (  1.8%)
Initial guess               ....       0.002 sec  (  0.1%)
Orbital Transformation      ....       0.000 sec  (  0.0%)
Orbital Orthonormalization  ....       0.000 sec  (  0.0%)
DIIS solution               ....       0.001 sec  (  0.0%)
SOSCF solution              ....       0.030 sec  (  1.1%)
Grid generation             ....       0.235 sec  (  9.0%)

-------------------------   --------------------
FINAL SINGLE POINT ENERGY       -40.451815117773
-------------------------   --------------------

                                *** OPTIMIZATION RUN DONE ***

                            ***************************************
                            *     ORCA property calculations      *
                            ***************************************

                                    ---------------------
                                    Active property flags
                                    ---------------------
   (+) Dipole Moment


------------------------------------------------------------------------------
                       ORCA ELECTRIC PROPERTIES CALCULATION
------------------------------------------------------------------------------

Dipole Moment Calculation                       ... on
Quadrupole Moment Calculation                   ... off
Polarizability Calculation                      ... off
GBWName                                         ... runs\methane\inputs\methane.gbw
Electron density file                           ... runs\methane\inputs\methane.scfp
The origin for moment calculation is the CENTER OF MASS  = ( 0.000000,  0.000000 -0.000000)

-------------
DIPOLE MOMENT
-------------
                                X             Y             Z
Electronic contribution:      0.00000       0.00000      -0.00000
Nuclear contribution   :     -0.00000      -0.00000       0.00000
                        -----------------------------------------
Total Dipole Moment    :      0.00000      -0.00000      -0.00000
                        -----------------------------------------
Magnitude (a.u.)       :      0.00000
Magnitude (Debye)      :      0.00000



--------------------
Rotational spectrum 
--------------------
 
Rotational constants in cm-1:     5.185992     5.185992     5.185992 
Rotational constants in MHz : 155472.127132 155472.127096 155472.126869 

 Dipole components along the rotational axes: 
x,y,z [a.u.] :    -0.000000     0.000000    -0.000000 
x,y,z [Debye]:    -0.000000     0.000000    -0.000000 

 

-------------------------------------------------------------------------------
                               ORCA SCF HESSIAN
-------------------------------------------------------------------------------

Hessian of the Kohn-Sham DFT energy:
Kohn-Sham wavefunction type                      ... RKS
Hartree-Fock exchange scaling                    ...    0.200
Number of operators                              ...    1
Number of atoms                                  ...    5
Basis set dimensions                             ...   34
Integral neglect threshold                       ... 2.5e-11
Integral primitive cutoff                        ... 2.5e-12

Setting up DFT Hessian calculations              ... 
Electron density on the grid                     ... found on disk
Electron density on the final grid               ... found on disk
Building xc-kernel on the grid                   ... done   (      0.0 sec)
Building xc-kernel on the final grid             ... done   (      0.1 sec)
                                                     done   (      0.2 sec)

Nuclear repulsion Hessian                        ... done   (      0.0 sec)

----------------------------------------------
Forming right-hand sides of CP-SCF equations     ...
----------------------------------------------
One electron integral derivatives                ... done   (      0.3 sec)
Transforming the overlap derivative matrices     ... done   (      0.0 sec)
Making the Q(x) pseudodensities                  ... done   (      0.0 sec)
Adding the E*S(x)*S(y) terms to the Hessian      ... done   (      0.0 sec)
Calculating energy weighted overlap derivatives  ... done   (      0.6 sec)
Two electron integral derivatives                ... done   (      0.6 sec)
Exchange-correlation integral derivatives        ... done   (      3.8 sec)
tr(F(y)Q(x)) contribution to the Hessian         ... done   (      0.0 sec)
Response fock operator R(S(x))                   ... done   (      0.6 sec)
XC Response fock operator R(S(x))                ... done   (      0.9 sec)
tr(F(y)S(x)) contribution to the Hessian         ... done   (      0.0 sec)
Transforming and finalizing RHSs                 ... done   (      0.0 sec)

----------------------------------------------
Solving the CP-SCF equations                     ...
----------------------------------------------
     CP-SCF ITERATION   0: 
     CP-SCF ITERATION   1:      0.000080386282
     CP-SCF ITERATION   2:      0.000002352628
     CP-SCF ITERATION   3:      0.000000008537

                                                 ... done   (      4.4 sec)
Forming perturbed density Hessian contributions  ... done   (      0.0 sec)
Making the perturbed densities                   ... done   (      0.0 sec)
2nd integral derivative contribs                 ... done   (      1.4 sec)
Exchange-correlation Hessian                     ... done   (      3.9 sec)
Dipol derivatives                                ... done   (      0.3 sec)

Total SCF Hessian time: 0 days 0 hours 0 min 17 sec 

Writing the Hessian file to the disk             ... done


Maximum memory used throughout the entire calculation: 100.8 MB

-----------------------
VIBRATIONAL FREQUENCIES
-----------------------

Scaling factor for frequencies =  1.000000000  (already applied!)

   0:         0.00 cm**-1
   1:         0.00 cm**-1
   2:         0.00 cm**-1
   3:         0.00 cm**-1
   4:         0.00 cm**-1
   5:         0.00 cm**-1
   6:      1312.94 cm**-1
   7:      1312.94 cm**-1
   8:      1312.94 cm**-1
   9:      1529.97 cm**-1
  10:      1529.97 cm**-1
  11:      3019.02 cm**-1
  12:      3151.97 cm**-1
  13:      3151.97 cm**-1
  14:      3151.97 cm**-1


------------
NORMAL MODES
------------

These modes are the Cartesian displacements weighted by the diagonal matrix
M(i,i)=1/sqrt(m[i]) where m[i] is the mass of the displaced atom
Thus, these vectors are normalized but *not* orthogonal

                  0          1          2          3          4          5    
      0       0.000000   0.000000   0.000000   0.000000   0.000000   0.000000
      1       0.000000   0.000000   0.000000   0.000000   0.000000   0.000000
      2       0.000000   0.000000   0.000000   0.000000   0.000000   0.000000
      3       0.000000   0.000000   0.000000   0.000000   0.000000   0.000000
      4       0.000000   0.000000   0.000000   0.000000   0.000000   0.000000
      5       0.000000   0.000000   0.000000   0.000000   0.000000   0.000000
      6       0.000000   0.000000   0.000000   0.000000   0.000000   0.000000
      7       0.000000   0.000000   0.000000   0.000000   0.000000   0.000000
      8       0.000000   0.000000   0.000000   0.000000   0.000000   0.000000
      9       0.000000   0.000000   0.000000   0.000000   0.000000   0.000000
     10       0.000000   0.000000   0.000000   0.000000   0.000000   0.000000
     11       0.000000   0.000000   0.000000   0.000000   0.000000   0.000000
     12       0.000000   0.000000   0.000000   0.000000   0.000000   0.000000
     13       0.000000   0.000000   0.000000   0.000000   0.000000   0.000000
     14       0.000000   0.000000   0.000000   0.000000   0.000000   0.000000
                  6          7          8          9         10         11    
      0       0.076814  -0.014330   0.096470  -0.000000   0.000000   0.000000
      1       0.008818   0.123316   0.011297   0.000000  -0.000000   0.000000
      2      -0.097129  -0.000138   0.077319  -0.000000  -0.000000  -0.000000
      3      -0.395179   0.274724  -0.120449  -0.385338   0.134839   0.288675
      4      -0.064535  -0.394602   0.293720   0.075895  -0.401132   0.288675
      5       0.450648   0.205711  -0.027323   0.309443   0.266293   0.288675
      6      -0.029248   0.275242  -0.411744   0.385338  -0.134839  -0.288675
      7       0.301395  -0.394084   0.002424  -0.075895   0.401132  -0.288675
      8       0.128031  -0.204891  -0.433330   0.309443   0.266293   0.288675
      9      -0.428399  -0.189866  -0.163008   0.385338  -0.134839  -0.288675
     10       0.012000  -0.340096  -0.361023   0.075895  -0.401132   0.288675
     11       0.417427  -0.258879  -0.069882  -0.309443  -0.266293  -0.288675
     12      -0.062469  -0.189348  -0.454304  -0.385338   0.134839   0.288675
     13      -0.353931  -0.340614  -0.069728  -0.075895   0.401132  -0.288675
     14       0.161252   0.259699  -0.390770  -0.309443  -0.266293  -0.288675
                  12         13         14    
      0      -0.038195   0.075850  -0.037848
      1      -0.053449  -0.053770  -0.053820
      2       0.065794   0.000352  -0.065693
      3       0.074939  -0.057893   0.488745
      4       0.072389  -0.079564   0.486074
      5       0.092326  -0.070516   0.484089
      6       0.488933  -0.055676   0.075393
      7       0.486382  -0.077347   0.072722
      8      -0.484318   0.068416  -0.092704
      9      -0.261371  -0.396225   0.150098
     10       0.246049   0.399917  -0.165424
     11      -0.243985  -0.408848   0.145442
     12       0.152622  -0.394008  -0.263254
     13      -0.167944   0.397700   0.247928
     14      -0.148008   0.406749   0.245943


-----------
IR SPECTRUM
-----------

 Mode    freq (cm**-1)   T**2         TX         TY         TZ
-------------------------------------------------------------------
   6:      1312.94   13.171250  ( -2.245551  -0.257776   2.839419)
   7:      1312.94   13.171250  (  0.418915  -3.604961   0.004023)
   8:      1312.94   13.171251  ( -2.820153  -0.330239  -2.260295)
   9:      1529.97    0.000000  (  0.000000  -0.000000   0.000000)
  10:      1529.97    0.000000  ( -0.000000   0.000000   0.000000)
  11:      3019.02    0.000000  (  0.000000   0.000000  -0.000000)
  12:      3151.97   17.696893  ( -1.728174  -2.418320   2.976917)
  13:      3151.97   17.696893  (  3.431884  -2.432861   0.015942)
  14:      3151.97   17.696893  ( -1.712449  -2.435120  -2.972306)

The first frequency considered to be a vibration is 6
The total number of vibrations considered is 9


--------------------------
THERMOCHEMISTRY AT 298.15K
--------------------------

Temperature         ... 298.15 K
Pressure            ... 1.00 atm
Total Mass          ... 16.04 AMU

Throughout the following assumptions are being made:
  (1) The electronic state is orbitally nondegenerate
  (2) There are no thermally accessible electronically excited states
  (3) Hindered rotations indicated by low frequency modes are not
      treated as such but are treated as vibrations and this may
      cause some error
  (4) All equations used are the standard statistical mechanics
      equations for an ideal gas
  (5) All vibrations are strictly harmonic

freq.    1312.94  E(vib)   ...       0.01 
freq.    1312.94  E(vib)   ...       0.01 
freq.    1312.94  E(vib)   ...       0.01 
freq.    1529.97  E(vib)   ...       0.00 
freq.    1529.97  E(vib)   ...       0.00 
freq.    3019.02  E(vib)   ...       0.00 
freq.    3151.97  E(vib)   ...       0.00 
freq.    3151.97  E(vib)   ...       0.00 
freq.    3151.97  E(vib)   ...       0.00 

------------
INNER ENERGY
------------

The inner energy is: U= E(el) + E(ZPE) + E(vib) + E(rot) + E(trans)
    E(el)   - is the total energy from the electronic structure calculation
              = E(kin-el) + E(nuc-el) + E(el-el) + E(nuc-nuc)
    E(ZPE)  - the the zero temperature vibrational energy from the frequency calculation
    E(vib)  - the the finite temperature correction to E(ZPE) due to population
              of excited vibrational states
    E(rot)  - is the rotational thermal energy
    E(trans)- is the translational thermal energy

Summary of contributions to the inner energy U:
Electronic energy                ...    -40.45181512 Eh
Zero point energy                ...      0.04436437 Eh      27.84 kcal/mol
Thermal vibrational correction   ...      0.00004055 Eh       0.03 kcal/mol
Thermal rotational correction    ...      0.00141627 Eh       0.89 kcal/mol
Thermal translational correction ...      0.00141627 Eh       0.89 kcal/mol
-----------------------------------------------------------------------
Total thermal energy                    -40.40457766 Eh


Summary of corrections to the electronic energy:
(perhaps to be used in another calculation)
Total thermal correction                  0.00287309 Eh       1.80 kcal/mol
Non-thermal (ZPE) correction              0.04436437 Eh      27.84 kcal/mol
-----------------------------------------------------------------------
Total correction                          0.04723746 Eh      29.64 kcal/mol


--------
ENTHALPY
--------

The enthalpy is H = U + kB*T
                kB is Boltzmann's constant
Total free energy                 ...    -40.40457766 Eh 
Thermal Enthalpy correction       ...      0.00094421 Eh       0.59 kcal/mol
-----------------------------------------------------------------------
Total Enthalpy                    ...    -40.40363345 Eh


Note: Rotational entropy computed according to Herzberg 
Infrared and Raman Spectra, Chapter V,1, Van Nostrand Reinhold, 1945 
Point Group:  Td, Symmetry Number:  12  
Rotational constants in cm-1:     5.185992     5.185992     5.185992 

Vibrational entropy computed according to the QRRHO of S. Grimme
Chem.Eur.J. 2012 18 9955


-------
ENTROPY
-------

The entropy contributions are T*S = T*(S(el)+S(vib)+S(rot)+S(trans))
     S(el)   - electronic entropy
     S(vib)  - vibrational entropy
     S(rot)  - rotational entropy
     S(trans)- translational entropy
The entropies will be listed as mutliplied by the temperature to get
units of energy

Electronic entropy                ...      0.00000000 Eh      0.00 kcal/mol
Vibrational entropy               ...      0.00004676 Eh      0.03 kcal/mol
Rotational entropy                ...      0.00483348 Eh      3.03 kcal/mol
Translational entropy             ...      0.01627961 Eh     10.22 kcal/mol
-----------------------------------------------------------------------
Final entropy term                ...      0.02115985 Eh     13.28 kcal/mol

In case the symmetry of your molecule has not been determined correctly
or in case you have a reason to use a different symmetry number we print 
out the resulting rotational entropy values for sn=1,12 :
 --------------------------------------------------------
|  sn= 1 | S(rot)=       0.00717968 Eh      4.51 kcal/mol|
|  sn= 2 | S(rot)=       0.00652523 Eh      4.09 kcal/mol|
|  sn= 3 | S(rot)=       0.00614239 Eh      3.85 kcal/mol|
|  sn= 4 | S(rot)=       0.00587077 Eh      3.68 kcal/mol|
|  sn= 5 | S(rot)=       0.00566008 Eh      3.55 kcal/mol|
|  sn= 6 | S(rot)=       0.00548794 Eh      3.44 kcal/mol|
|  sn= 7 | S(rot)=       0.00534239 Eh      3.35 kcal/mol|
|  sn= 8 | S(rot)=       0.00521631 Eh      3.27 kcal/mol|
|  sn= 9 | S(rot)=       0.00510510 Eh      3.20 kcal/mol|
|  sn=10 | S(rot)=       0.00500563 Eh      3.14 kcal/mol|
|  sn=11 | S(rot)=       0.00491564 Eh      3.08 kcal/mol|
|  sn=12 | S(rot)=       0.00483348 Eh      3.03 kcal/mol|
 --------------------------------------------------------


-------------------
GIBBS FREE ENERGY
-------------------

The Gibbs free energy is G = H - T*S

Total enthalpy                    ...    -40.40363345 Eh 
Total entropy correction          ...     -0.02115985 Eh    -13.28 kcal/mol
-----------------------------------------------------------------------
Final Gibbs free energy         ...    -40.42479330 Eh

For completeness - the Gibbs free energy minus the electronic energy
G-E(el)                           ...      0.02702182 Eh     16.96 kcal/mol


Timings for individual modules:

Sum of individual times         ...       37.910 sec (=   0.632 min)
GTO integral calculation        ...        3.869 sec (=   0.064 min)  10.2 %
SCF iterations                  ...       12.573 sec (=   0.210 min)  33.2 %
SCF Gradient evaluation         ...        2.781 sec (=   0.046 min)   7.3 %
Geometry relaxation             ...        0.414 sec (=   0.007 min)   1.1 %
Analytical frequency calculation...       18.273 sec (=   0.305 min)  48.2 %
                             ****ORCA TERMINATED NORMALLY****
TOTAL RUN TIME: 0 days 0 hours 0 minutes 38 seconds 825 msec
