
                                 *****************
                                 * O   R   C   A *
                                 *****************

           --- An Ab Initio, DFT and Semiempirical electronic structure package ---

                  #######################################################
                  #                        -***-                        #
                  #          Department of theory and spectroscopy      #
                  #               Directorship: Frank Neese             #
                  #        Max Planck Institute fuer Kohlenforschung    #
                  #                Kaiser Wilhelm Platz 1               #
                  #                 D-45470 Muelheim/Ruhr               #
                  #                      Germany                        #
                  #                                                     #
                  #                  All rights reserved                #
                  #                        -***-                        #
                  #######################################################


                         Program Version 4.2.1 -  RELEASE  -


 With contributions from (in alphabetic order):
   Daniel Aravena         : Magnetic Suceptibility
   Michael Atanasov       : Ab Initio Ligand Field Theory (pilot matlab implementation)
   Alexander A. Auer      : GIAO ZORA, VPT2
   Ute Becker             : Parallelization
   Giovanni Bistoni       : ED, misc. LED, open-shell LED, HFLD
   Martin Brehm           : Molecular dynamics
   Dmytro Bykov           : SCF Hessian
   Vijay G. Chilkuri      : MRCI spin determinant printing, contributions to CSF-ICE
   Dipayan Datta          : RHF DLPNO-CCSD density
   Achintya Kumar Dutta   : EOM-CC, STEOM-CC
   Dmitry Ganyushin       : Spin-Orbit,Spin-Spin,Magnetic field MRCI
   Miquel Garcia          : C-PCM Hessian, Gaussian charge scheme
   Yang Guo               : DLPNO-NEVPT2, CIM, IAO-localization
   Andreas Hansen         : Spin unrestricted coupled pair/coupled cluster methods
   Benjamin Helmich-Paris : CASSCF linear response (MC-RPA)
   Lee Huntington         : MR-EOM, pCC
   Robert Izsak           : Overlap fitted RIJCOSX, COSX-SCS-MP3, EOM
   Christian Kollmar      : KDIIS, OOCD, Brueckner-CCSD(T), CCSD density
   Simone Kossmann        : Meta GGA functionals, TD-DFT gradient, OOMP2, MP2 Hessian
   Martin Krupicka        : AUTO-CI
   Lucas Lang             : DCDCAS
   Dagmar Lenk            : GEPOL surface, SMD
   Dimitrios Liakos       : Extrapolation schemes; Compound Job, initial MDCI parallelization
   Dimitrios Manganas     : Further ROCIS development; embedding schemes
   Dimitrios Pantazis     : SARC Basis sets
   Taras Petrenko         : DFT Hessian,TD-DFT gradient, ASA, ECA, R-Raman, ABS, FL, XAS/XES, NRVS
   Peter Pinski           : DLPNO-MP2, DLPNO-MP2 Gradient
   Christoph Reimann      : Effective Core Potentials
   Marius Retegan         : Local ZFS, SOC
   Christoph Riplinger    : Optimizer, TS searches, QM/MM, DLPNO-CCSD(T), (RO)-DLPNO pert. Triples
   Tobias Risthaus        : Range-separated hybrids, TD-DFT gradient, RPA, STAB
   Michael Roemelt        : Original ROCIS implementation
   Masaaki Saitow         : Open-shell DLPNO-CCSD energy and density
   Barbara Sandhoefer     : DKH picture change effects
   Avijit Sen             : IP-ROCIS
   Kantharuban Sivalingam : CASSCF convergence, NEVPT2, FIC-MRCI
   Bernardo de Souza      : ESD, SOC TD-DFT
   Georgi Stoychev        : AutoAux, RI-MP2 NMR
   Willem Van den Heuvel  : Paramagnetic NMR
   Boris Wezisla          : Elementary symmetry handling
   Frank Wennmohs         : Technical directorship


 We gratefully acknowledge several colleagues who have allowed us to
 interface, adapt or use parts of their codes:
   Stefan Grimme, W. Hujo, H. Kruse,             : VdW corrections, initial TS optimization,
                  C. Bannwarth                     DFT functionals, gCP, sTDA/sTD-DF
   Ed Valeev, F. Pavosevic, A. Kumar             : LibInt (2-el integral package), F12 methods
   Garnet Chan, S. Sharma, J. Yang, R. Olivares  : DMRG
   Ulf Ekstrom                                   : XCFun DFT Library
   Mihaly Kallay                                 : mrcc  (arbitrary order and MRCC methods)
   Andreas Klamt, Michael Diedenhofen            : otool_cosmo (COSMO solvation model)
   Jiri Pittner, Ondrej Demel                    : Mk-CCSD
   Frank Weinhold                                : gennbo (NPA and NBO analysis)
   Christopher J. Cramer and Donald G. Truhlar   : smd solvation model
   Lars Goerigk                                  : TD-DFT with DH, B97 family of functionals
   V. Asgeirsson, H. Jonsson                     : NEB implementation
   FAccTs GmbH                                   : IRC, NEB, NEB-TS, Multilevel, MM, QM/MM, CI optimization
   S Lehtola, MJT Oliveira, MAL Marques          : LibXC Library


 Your calculation uses the libint2 library for the computation of 2-el integrals
 For citations please refer to: http://libint.valeyev.net

 Your ORCA version has been built with support for libXC version: 4.2.3
 For citations please refer to: https://tddft.org/programs/libxc/

 This ORCA versions uses:
   CBLAS   interface :  Fast vector & matrix operations
   LAPACKE interface :  Fast linear algebra routines


----- Orbital basis set information -----
Your calculation utilizes the basis: def2-SVP
   F. Weigend and R. Ahlrichs, Phys. Chem. Chem. Phys. 7, 3297 (2005).

================================================================================
                                        WARNINGS
                       Please study these warnings very carefully!
================================================================================


WARNING: Geometry Optimization
  ===> : Switching off AutoStart
         For restart on a previous wavefunction, please use MOREAD

INFO   : the flag for use of LIBINT has been found!

================================================================================
                                       INPUT FILE
================================================================================
NAME = runs\co2\inputs\co2.inp
|  1> ! B3LYP def2-SVP Opt Freq TightSCF
|  2> 
|  3> * xyz 0 1
|  4> O   -1.160000   0.000000   0.000000
|  5> C    0.000000   0.000000   0.000000
|  6> O    1.160000   0.000000   0.000000
|  7> *
|  8> 
|  9>                          ****END OF INPUT****
================================================================================

                       *****************************
                       * Geometry Optimization Run *
                       *****************************

Geometry optimization settings:
Update method            Update   .... BFGS
Choice of coordinates    CoordSys .... Z-matrix Internals
Initial Hessian          InHess   .... Almoef's Model

Convergence Tolerances:
Energy Change            TolE     ....  5.0000e-06 Eh
Max. Gradient            TolMAXG  ....  3.0000e-04 Eh/bohr
RMS Gradient             TolRMSG  ....  1.0000e-04 Eh/bohr
Max. Displacement        TolMAXD  ....  4.0000e-03 bohr
RMS Displacement         TolRMSD  ....  2.0000e-03 bohr
Strict Convergence                ....  False
------------------------------------------------------------------------------
                        ORCA OPTIMIZATION COORDINATE SETUP
------------------------------------------------------------------------------

The optimization will be done in new redundant internal coordinates
Making redundant internal coordinates   ...  (new redundants) done
Evaluating the initial hessian          ...  (Almloef) done
Evaluating the coordinates              ...  done
Calculating the B-matrix                .... done
Calculating the G-matrix                .... done
Diagonalizing the G-matrix              .... done
The first mode is                       ....    0
The number of degrees of freedom        ....    4

    -----------------------------------------------------------------
                    Redundant Internal Coordinates


    -----------------------------------------------------------------
         Definition                    Initial Value    Approx d2E/dq
    -----------------------------------------------------------------
      1. B(C   1,O   0)                  1.1600         1.302644   
      2. B(O   2,C   1)                  1.1600         1.302644   
      3. L(O   0,C   1,O   2, 2)       180.0000         0.563989   
      4. L(O   0,C   1,O   2, 1)       180.0000         0.563989   
    -----------------------------------------------------------------

Number of atoms                         .... 3
Number of degrees of freedom            .... 4

         *************************************************************
         *                GEOMETRY OPTIMIZATION CYCLE   1            *
         *************************************************************
---------------------------------
CARTESIAN COORDINATES (ANGSTROEM)
---------------------------------
  O     -1.160000    0.000000    0.000000
  C      0.000000    0.000000    0.000000
  O      1.160000    0.000000    0.000000

----------------------------
CARTESIAN COORDINATES (A.U.)
----------------------------
  NO LB      ZA    FRAG     MASS         X           Y           Z
   0 O     8.0000    0    15.999   -2.192082    0.000000    0.000000
   1 C     6.0000    0    12.011    0.000000    0.000000    0.000000
   2 O     8.0000    0    15.999    2.192082    0.000000    0.000000

--------------------------------
INTERNAL COORDINATES (ANGSTROEM)
--------------------------------
 O      0   0   0     0.000000000000     0.00000000     0.00000000
 C      1   0   0     1.160000000000     0.00000000     0.00000000
 O      2   1   0     1.160000000000   179.99999915     0.00000000

---------------------------
INTERNAL COORDINATES (A.U.)
---------------------------
 O      0   0   0     0.000000000000     0.00000000     0.00000000
 C      1   0   0     2.192082315349     0.00000000     0.00000000
 O      2   1   0     2.192082315349   179.99999915     0.00000000

---------------------
BASIS SET INFORMATION
---------------------
There are 2 groups of distinct atoms

 Group   1 Type O   : 7s4p1d contracted to 3s2p1d pattern {511/31/1}
 Group   2 Type C   : 7s4p1d contracted to 3s2p1d pattern {511/31/1}

Atom   0O    basis set group =>   1
Atom   1C    basis set group =>   2
Atom   2O    basis set group =>   1
------------------------------------------------------------------------------
                           ORCA GTO INTEGRAL CALCULATION
------------------------------------------------------------------------------

                         BASIS SET STATISTICS AND STARTUP INFO

 # of primitive gaussian shells          ...   36
 # of primitive gaussian functions       ...   72
 # of contracted shells                  ...   18
 # of contracted basis functions         ...   42
 Highest angular momentum                ...    2
 Maximum contraction depth               ...    5
 Integral package used                   ... LIBINT
 Integral threshhold            Thresh   ...  2.500e-11
 Primitive cut-off              TCut     ...  2.500e-12


------------------------------ INTEGRAL EVALUATION ----------------------------


 * One electron integrals 
 Pre-screening matrix                    ... done
 Shell pair data                         ... done (   0.001 sec)

Timings:
 Total evaluation time               ...     0.007 sec (   0.000 min)
 One electron matrix time            ...     0.021 sec (   0.000 min) =300.0%
 Schwartz matrix evaluation time     ...     0.283 sec (   0.005 min) =4042.9%

-------------------------------------------------------------------------------
                                 ORCA SCF
-------------------------------------------------------------------------------

------------
SCF SETTINGS
------------
Hamiltonian:
 Density Functional     Method          .... DFT(GTOs)
 Exchange Functional    Exchange        .... B88
   X-Alpha parameter    XAlpha          ....  0.666667
   Becke's b parameter  XBeta           ....  0.004200
 Correlation Functional Correlation     .... LYP
 LDA part of GGA corr.  LDAOpt          .... VWN-5
 Gradients option       PostSCFGGA      .... off
 Hybrid DFT is turned on
   Fraction HF Exchange ScalHFX         ....  0.200000
   Scaling of DF-GGA-X  ScalDFX         ....  0.720000
   Scaling of DF-GGA-C  ScalDFC         ....  0.810000
   Scaling of DF-LDA-C  ScalLDAC        ....  1.000000
   Perturbative correction              ....  0.000000
   Density functional embedding theory  .... OFF
   NL short-range parameter             ....  4.800000


General Settings:
 Integral files         IntName         .... runs\co2\inputs\co2
 Hartree-Fock type      HFTyp           .... RHF
 Total Charge           Charge          ....    0
 Multiplicity           Mult            ....    1
 Number of Electrons    NEL             ....   22
 Basis Dimension        Dim             ....   42
 Nuclear Repulsion      ENuc            ....     58.3919678124 Eh

Convergence Acceleration:
 DIIS                   CNVDIIS         .... on
   Start iteration      DIISMaxIt       ....    12
   Startup error        DIISStart       ....  0.200000
   # of expansion vecs  DIISMaxEq       ....     5
   Bias factor          DIISBfac        ....   1.050
   Max. coefficient     DIISMaxC        ....  10.000
 Newton-Raphson         CNVNR           .... off
 SOSCF                  CNVSOSCF        .... on
   Start iteration      SOSCFMaxIt      ....   150
   Startup grad/error   SOSCFStart      ....  0.003300
 Level Shifting         CNVShift        .... on
   Level shift para.    LevelShift      ....    0.2500
   Turn off err/grad.   ShiftErr        ....    0.0010
 Zerner damping         CNVZerner       .... off
 Static damping         CNVDamp         .... on
   Fraction old density DampFac         ....    0.7000
   Max. Damping (<1)    DampMax         ....    0.9800
   Min. Damping (>=0)   DampMin         ....    0.0000
   Turn off err/grad.   DampErr         ....    0.1000
 Fernandez-Rico         CNVRico         .... off

SCF Procedure:
 Maximum # iterations   MaxIter         ....   125
 SCF integral mode      SCFMode         .... Direct
   Integral package                     .... LIBINT
 Reset frequency        DirectResetFreq ....    20
 Integral Threshold     Thresh          ....  2.500e-11 Eh
 Primitive CutOff       TCut            ....  2.500e-12 Eh

Convergence Tolerance:
 Convergence Check Mode ConvCheckMode   .... Total+1el-Energy
 Convergence forced     ConvForced      .... 0
 Energy Change          TolE            ....  1.000e-08 Eh
 1-El. energy change                    ....  1.000e-05 Eh
 Orbital Gradient       TolG            ....  1.000e-05
 Orbital Rotation angle TolX            ....  1.000e-05
 DIIS Error             TolErr          ....  5.000e-07


Diagonalization of the overlap matrix:
Smallest eigenvalue                        ... 9.118e-03
Time for diagonalization                   ...    0.007 sec
Threshold for overlap eigenvalues          ... 1.000e-08
Number of eigenvalues below threshold      ... 0
Time for construction of square roots      ...    0.003 sec
Total time needed                          ...    0.010 sec

-------------------
DFT GRID GENERATION
-------------------

General Integration Accuracy     IntAcc      ...  4.340
Radial Grid Type                 RadialGrid  ... Gauss-Chebyshev
Angular Grid (max. acc.)         AngularGrid ... Lebedev-110
Angular grid pruning method      GridPruning ... 3 (G Style)
Weight generation scheme         WeightScheme... Becke
Basis function cutoff            BFCut       ...    1.0000e-11
Integration weight cutoff        WCut        ...    1.0000e-14
Grids for H and He will be reduced by one unit

# of grid points (after initial pruning)     ...   5088 (   0.0 sec)
# of grid points (after weights+screening)   ...   5034 (   0.0 sec)
nearest neighbour list constructed           ...    0.0 sec
Grid point re-assignment to atoms done       ...    0.0 sec
Grid point division into batches done        ...    0.0 sec
Reduced shell lists constructed in    0.0 sec

Total number of grid points                  ...     5034
Total number of batches                      ...       81
Average number of points per batch           ...       62
Average number of grid points per atom       ...     1678
Average number of shells per batch           ...    15.22 (84.55%)
Average number of basis functions per batch  ...    36.66 (87.28%)
Average number of large shells per batch     ...    13.78 (90.54%)
Average number of large basis fcns per batch ...    33.20 (90.55%)
Maximum spatial batch extension              ...  17.48, 38.86, 44.34 au
Average spatial batch extension              ...   5.15,  6.66,  6.68 au

Time for grid setup =    0.037 sec

------------------------------
INITIAL GUESS: MODEL POTENTIAL
------------------------------
Loading Hartree-Fock densities                     ... done
Calculating cut-offs                               ... done
Setting up the integral package                    ... done
Initializing the effective Hamiltonian             ... done
Starting the Coulomb interaction                   ... done (   0.0 sec)
Reading the grid                                   ... done
Mapping shells                                     ... done
Starting the XC term evaluation                    ... done (   0.0 sec)
  promolecular density results
     # of electrons  =     22.000117001
     EX              =    -21.510920154
     EC              =     -0.787281704
     EX+EC           =    -22.298201858
Transforming the Hamiltonian                       ... done (   0.0 sec)
Diagonalizing the Hamiltonian                      ... done (   0.0 sec)
Back transforming the eigenvectors                 ... done (   0.0 sec)
Now organizing SCF variables                       ... done
                      ------------------
                      INITIAL GUESS DONE (   0.3 sec)
                      ------------------
--------------
SCF ITERATIONS
--------------
ITER       Energy         Delta-E        Max-DP      RMS-DP      [F,P]     Damp
               ***  Starting incremental Fock matrix formation  ***
  0   -188.2466955621   0.000000000000 0.08401860  0.00610783  0.2089915 0.7000
  1   -188.3047732759  -0.058077713774 0.03782214  0.00304675  0.0836970 0.7000
                               ***Turning on DIIS***
  2   -188.3214383176  -0.016665041736 0.03750500  0.00292486  0.0185080 0.0000
  3   -188.3550231953  -0.033584877701 0.02316815  0.00181151  0.0458948 0.0000
  4   -188.3600072228  -0.004984027480 0.00719597  0.00046671  0.0067693 0.0000
                      *** Initiating the SOSCF procedure ***
                           *** Shutting down DIIS ***
                      *** Re-Reading the Fockian *** 
                      *** Removing any level shift *** 
ITER      Energy       Delta-E        Grad      Rot      Max-DP    RMS-DP
  5   -188.36015173  -0.0001445064  0.000497  0.000497  0.002031  0.000122
               *** Restarting incremental Fock matrix formation ***
  6   -188.36015542  -0.0000036875  0.000110  0.000128  0.000331  0.000018
  7   -188.36015534   0.0000000816  0.000174  0.000117  0.000164  0.000011
  8   -188.36015548  -0.0000001494  0.000007  0.000003  0.000017  0.000001
                  ***Gradient check signals convergence***
              ***Rediagonalizing the Fockian in SOSCF/NRSCF***

               *****************************************************
               *                     SUCCESS                       *
               *           SCF CONVERGED AFTER   9 CYCLES          *
               *****************************************************

Setting up the final grid:

General Integration Accuracy     IntAcc      ...  4.670
Radial Grid Type                 RadialGrid  ... Gauss-Chebyshev
Angular Grid (max. acc.)         AngularGrid ... Lebedev-302
Angular grid pruning method      GridPruning ... 3 (G Style)
Weight generation scheme         WeightScheme... Becke
Basis function cutoff            BFCut       ...    1.0000e-11
Integration weight cutoff        WCut        ...    1.0000e-14
Grids for H and He will be reduced by one unit

# of grid points (after initial pruning)     ...  18636 (   0.0 sec)
# of grid points (after weights+screening)   ...  18438 (   0.0 sec)
nearest neighbour list constructed           ...    0.0 sec
Grid point re-assignment to atoms done       ...    0.0 sec
Grid point division into batches done        ...    0.1 sec
Reduced shell lists constructed in    0.2 sec

Total number of grid points                  ...    18438
Total number of batches                      ...      289
Average number of points per batch           ...       63
Average number of grid points per atom       ...     6146
Average number of shells per batch           ...    13.64 (75.77%)
Average number of basis functions per batch  ...    32.85 (78.22%)
Average number of large shells per batch     ...    11.95 (87.64%)
Average number of large basis fcns per batch ...    28.67 (87.27%)
Maximum spatial batch extension              ...  21.59, 20.64, 24.02 au
Average spatial batch extension              ...   3.17,  3.99,  4.00 au

Final grid set up in    0.2 sec
Final integration                            ... done (   0.1 sec)
Change in XC energy                          ...    -0.000158312
Integrated number of electrons               ...    21.999985673
Previous integrated no of electrons          ...    21.999758310

----------------
TOTAL SCF ENERGY
----------------

Total Energy       :         -188.36031380 Eh           -5125.54472 eV

Components:
Nuclear Repulsion  :           58.39196781 Eh            1588.92622 eV
Electronic Energy  :         -246.75228161 Eh           -6714.47094 eV
One Electron Energy:         -372.68495473 Eh          -10141.27319 eV
Two Electron Energy:          125.93267312 Eh            3426.80225 eV

Virial components:
Potential Energy   :         -375.41951369 Eh          -10215.68432 eV
Kinetic Energy     :          187.05919989 Eh            5090.13961 eV
Virial Ratio       :            2.00695563


DFT components:
N(Alpha)           :       10.999992836288 electrons
N(Beta)            :       10.999992836288 electrons
N(Total)           :       21.999985672577 electrons
E(X)               :      -17.220809837646 Eh       
E(C)               :       -0.930406679567 Eh       
E(XC)              :      -18.151216517213 Eh       
DFET-embed. en.    :        0.000000000000 Eh       

---------------
SCF CONVERGENCE
---------------

  Last Energy change         ...   -2.8248e-10  Tolerance :   1.0000e-08
  Last MAX-Density change    ...    3.3496e-06  Tolerance :   1.0000e-07
  Last RMS-Density change    ...    2.4890e-07  Tolerance :   5.0000e-09
  Last Orbital Gradient      ...    1.6481e-06  Tolerance :   1.0000e-05
  Last Orbital Rotation      ...    1.3105e-06  Tolerance :   1.0000e-05

             **** THE GBW FILE WAS UPDATED (runs\co2\inputs\co2.gbw) ****
             **** DENSITY FILE WAS UPDATED (runs\co2\inputs\co2.scfp) ****
             **** ENERGY FILE WAS UPDATED (runs\co2\inputs\co2.en.tmp) ****
             **** THE GBW FILE WAS UPDATED (runs\co2\inputs\co2.gbw) ****
             **** DENSITY FILE WAS UPDATED (runs\co2\inputs\co2.scfp) ****
----------------
ORBITAL ENERGIES
----------------

  NO   OCC          E(Eh)            E(eV) 
   0   2.0000     -19.213880      -522.8363 
   1   2.0000     -19.213812      -522.8344 
   2   2.0000     -10.375145      -282.3220 
   3   2.0000      -1.148658       -31.2566 
   4   2.0000      -1.109875       -30.2012 
   5   2.0000      -0.550380       -14.9766 
   6   2.0000      -0.517257       -14.0753 
   7   2.0000      -0.517257       -14.0753 
   8   2.0000      -0.514168       -13.9912 
   9   2.0000      -0.370221       -10.0742 
  10   2.0000      -0.370221       -10.0742 
  11   0.0000       0.035910         0.9772 
  12   0.0000       0.035910         0.9772 
  13   0.0000       0.062700         1.7062 
  14   0.0000       0.342116         9.3095 
  15   0.0000       0.416937        11.3454 
  16   0.0000       0.416937        11.3454 
  17   0.0000       0.469936        12.7876 
  18   0.0000       0.761789        20.7293 
  19   0.0000       0.806506        21.9461 
  20   0.0000       0.902101        24.5474 
  21   0.0000       0.902101        24.5474 
  22   0.0000       1.086723        29.5712 
  23   0.0000       1.093634        29.7593 
  24   0.0000       1.093634        29.7593 
  25   0.0000       1.233007        33.5518 
  26   0.0000       1.528247        41.5857 
  27   0.0000       1.528313        41.5875 
  28   0.0000       1.564324        42.5674 
  29   0.0000       1.577312        42.9208 
  30   0.0000       1.577312        42.9208 
  31   0.0000       2.548554        69.3497 
  32   0.0000       2.549321        69.3706 
  33   0.0000       2.670125        72.6578 
  34   0.0000       2.670863        72.6779 
  35   0.0000       2.768921        75.3462 
  36   0.0000       2.768921        75.3462 
  37   0.0000       2.840430        77.2920 
  38   0.0000       3.541506        96.3693 
  39   0.0000       3.550044        96.6016 
  40   0.0000       3.550044        96.6016 
  41   0.0000       3.846578       104.6707 

                    ********************************
                    * MULLIKEN POPULATION ANALYSIS *
                    ********************************

-----------------------
MULLIKEN ATOMIC CHARGES
-----------------------
   0 O :   -0.130638
   1 C :    0.261276
   2 O :   -0.130638
Sum of atomic charges:    0.0000000

--------------------------------
MULLIKEN REDUCED ORBITAL CHARGES
--------------------------------
  0 O s       :     3.717501  s :     3.717501
      pz      :     1.551989  p :     4.389626
      px      :     1.285647
      py      :     1.551989
      dz2     :     0.002455  d :     0.023511
      dxz     :     0.006846
      dyz     :     0.000000
      dx2y2   :     0.007364
      dxy     :     0.006846
  1 C s       :     2.961713  s :     2.961713
      pz      :     0.823905  p :     2.629718
      px      :     0.981909
      py      :     0.823905
      dz2     :     0.007611  d :     0.147293
      dxz     :     0.058425
      dyz     :     0.000000
      dx2y2   :     0.022833
      dxy     :     0.058425
  2 O s       :     3.717501  s :     3.717501
      pz      :     1.551989  p :     4.389626
      px      :     1.285647
      py      :     1.551989
      dz2     :     0.002455  d :     0.023511
      dxz     :     0.006846
      dyz     :     0.000000
      dx2y2   :     0.007364
      dxy     :     0.006846


                     *******************************
                     * LOEWDIN POPULATION ANALYSIS *
                     *******************************

----------------------
LOEWDIN ATOMIC CHARGES
----------------------
   0 O :   -0.064798
   1 C :    0.129595
   2 O :   -0.064798

-------------------------------
LOEWDIN REDUCED ORBITAL CHARGES
-------------------------------
  0 O s       :     3.528840  s :     3.528840
      pz      :     1.523086  p :     4.497680
      px      :     1.451509
      py      :     1.523086
      dz2     :     0.005354  d :     0.038278
      dxz     :     0.008431
      dyz     :     0.000000
      dx2y2   :     0.016062
      dxy     :     0.008431
  1 C s       :     2.807182  s :     2.807182
      pz      :     0.819686  p :     2.741997
      px      :     1.102625
      py      :     0.819686
      dz2     :     0.021666  d :     0.321226
      dxz     :     0.117281
      dyz     :     0.000000
      dx2y2   :     0.064998
      dxy     :     0.117281
  2 O s       :     3.528840  s :     3.528840
      pz      :     1.523086  p :     4.497680
      px      :     1.451509
      py      :     1.523086
      dz2     :     0.005354  d :     0.038278
      dxz     :     0.008431
      dyz     :     0.000000
      dx2y2   :     0.016062
      dxy     :     0.008431


                      *****************************
                      * MAYER POPULATION ANALYSIS *
                      *****************************

  NA   - Mulliken gross atomic population
  ZA   - Total nuclear charge
  QA   - Mulliken gross atomic charge
  VA   - Mayer's total valence
  BVA  - Mayer's bonded valence
  FA   - Mayer's free valence

  ATOM       NA         ZA         QA         VA         BVA        FA
  0 O      8.1306     8.0000    -0.1306     2.4457     2.4457     0.0000
  1 C      5.7387     6.0000     0.2613     4.3502     4.3502     0.0000
  2 O      8.1306     8.0000    -0.1306     2.4457     2.4457    -0.0000

  Mayer bond orders larger than 0.100000
B(  0-O ,  1-C ) :   2.1751 B(  0-O ,  2-O ) :   0.2705 B(  1-C ,  2-O ) :   2.1751 


-------
TIMINGS
-------

Total SCF time: 0 days 0 hours 0 min 5 sec 

Total time                  ....       5.911 sec
Sum of individual times     ....       5.199 sec  ( 88.0%)

Fock matrix formation       ....       4.521 sec  ( 76.5%)
  XC integration            ....       0.720 sec  ( 15.9% of F)
    Basis function eval.    ....       0.188 sec  ( 26.1% of XC)
    Density eval.           ....       0.170 sec  ( 23.6% of XC)
    XC-Functional eval.     ....       0.082 sec  ( 11.4% of XC)
    XC-Potential eval.      ....       0.145 sec  ( 20.1% of XC)
Diagonalization             ....       0.005 sec  (  0.1%)
Density matrix formation    ....       0.018 sec  (  0.3%)
Population analysis         ....       0.031 sec  (  0.5%)
Initial guess               ....       0.292 sec  (  4.9%)
Orbital Transformation      ....       0.000 sec  (  0.0%)
Orbital Orthonormalization  ....       0.000 sec  (  0.0%)
DIIS solution               ....       0.068 sec  (  1.2%)
SOSCF solution              ....       0.017 sec  (  0.3%)
Grid generation             ....       0.247 sec  (  4.2%)

-------------------------   --------------------
FINAL SINGLE POINT ENERGY      -188.360313796883
-------------------------   --------------------

------------------------------------------------------------------------------
                         ORCA SCF GRADIENT CALCULATION
------------------------------------------------------------------------------

Gradient of the Kohn-Sham DFT energy:
Kohn-Sham wavefunction type      ... RKS
Hartree-Fock exchange scaling    ...    0.200
Number of operators              ...    1
Number of atoms                  ...    3
Basis set dimensions             ...   42
Integral neglect threshold       ... 2.5e-11
Integral primitive cutoff        ... 2.5e-12

Nuclear repulsion gradient       ... done
One Electron Gradient            ... done
Pre-screening matrix             ... done
Starting the two electron gradient:
Two electron gradient done
Exchange-correlation gradient    ... done

------------------
CARTESIAN GRADIENT
------------------

   1   O   :    0.007406395    0.000000000    0.000000000
   2   C   :   -0.000000000   -0.000000000   -0.000000000
   3   O   :   -0.007406395   -0.000000000   -0.000000000

Difference to translation invariance:
           :   -0.0000000000    0.0000000000    0.0000000000

Norm of the cartesian gradient     ...    0.0104742237
RMS gradient                       ...    0.0034914079
MAX gradient                       ...    0.0074063946

-------
TIMINGS
-------

Total SCF gradient time            ...        1.795 sec

One electron gradient       ....       0.011 sec  (  0.6%)
Prescreening matrices       ....       0.066 sec  (  3.7%)
Two electron gradient       ....       0.375 sec  ( 20.9%)
XC gradient                 ....       0.882 sec  ( 49.1%)
------------------------------------------------------------------------------
                         ORCA GEOMETRY RELAXATION STEP
------------------------------------------------------------------------------

Reading the OPT-File                    .... done
Getting information on internals        .... done
Copying old internal coords+grads       .... done
Making the new internal coordinates     .... (new redundants).... done
Validating the new internal coordinates .... (new redundants).... done
Calculating the B-matrix                .... done
Calculating the G,G- and P matrices     .... done
Transforming gradient to internals      .... done
Projecting the internal gradient        .... done
Number of atoms                         ....   3
Number of internal coordinates          ....   4
Current Energy                          ....  -188.360313797 Eh
Current gradient norm                   ....     0.010474224 Eh/bohr
Maximum allowed component of the step   ....  0.300
Current trust radius                    ....  0.300
Evaluating the initial hessian          ....  (Almloef) done
Projecting the Hessian                  .... done
Forming the augmented Hessian           .... done
Diagonalizing the augmented Hessian     .... done
Last element of RFO vector              ....  0.999967679
Lowest eigenvalues of augmented Hessian:
 -0.000084215  0.563988660  0.563988660  1.302644141
Length of the computed step             ....  0.008040221
The final length of the internal step   ....  0.008040221
Converting the step to cartesian space:
 Initial RMS(Int)=    0.0040201104
Transforming coordinates:
 Iter   0:  RMS(Cart)=    0.0026800736 RMS(Int)=    0.0040201104
 Iter   1:  RMS(Cart)=    0.0000000000 RMS(Int)=    0.0000000000
done
Storing new coordinates                 .... done

                                .--------------------.
          ----------------------|Geometry convergence|-------------------------
          Item                value                   Tolerance       Converged
          ---------------------------------------------------------------------
          RMS gradient        0.0052371118            0.0001000000      NO
          MAX gradient        0.0074063946            0.0003000000      NO
          RMS step            0.0040201104            0.0020000000      NO
          MAX step            0.0056852947            0.0040000000      NO
          ........................................................
          Max(Bonds)      0.0030      Max(Angles)    0.00
          Max(Dihed)        0.00      Max(Improp)    0.00
          ---------------------------------------------------------------------

The optimization has not yet converged - more geometry cycles are needed


    ---------------------------------------------------------------------------
                         Redundant Internal Coordinates
                            (Angstroem and degrees)

        Definition                    Value    dE/dq     Step     New-Value
    ----------------------------------------------------------------------------
     1. B(C   1,O   0)                1.1600 -0.007406  0.0030    1.1630   
     2. B(O   2,C   1)                1.1600 -0.007406  0.0030    1.1630   
     3. L(O   0,C   1,O   2, 2)       180.00 -0.000000    0.00    180.00   
     4. L(O   0,C   1,O   2, 1)       180.00  0.000000   -0.00    180.00   
    ----------------------------------------------------------------------------

         *************************************************************
         *                GEOMETRY OPTIMIZATION CYCLE   2            *
         *************************************************************
---------------------------------
CARTESIAN COORDINATES (ANGSTROEM)
---------------------------------
  O     -1.163009   -0.000000   -0.000000
  C      0.000000    0.000000    0.000000
  O      1.163009   -0.000000   -0.000000

----------------------------
CARTESIAN COORDINATES (A.U.)
----------------------------
  NO LB      ZA    FRAG     MASS         X           Y           Z
   0 O     8.0000    0    15.999   -2.197768   -0.000000   -0.000000
   1 C     6.0000    0    12.011    0.000000    0.000000    0.000000
   2 O     8.0000    0    15.999    2.197768   -0.000000   -0.000000

--------------------------------
INTERNAL COORDINATES (ANGSTROEM)
--------------------------------
 O      0   0   0     0.000000000000     0.00000000     0.00000000
 C      1   0   0     1.163008528386     0.00000000     0.00000000
 O      2   1   0     1.163008528335   180.00000000     0.00000000

---------------------------
INTERNAL COORDINATES (A.U.)
---------------------------
 O      0   0   0     0.000000000000     0.00000000     0.00000000
 C      1   0   0     2.197767610064     0.00000000     0.00000000
 O      2   1   0     2.197767609968   180.00000000     0.00000000


Diagonalization of the overlap matrix:
Smallest eigenvalue                        ... 9.134e-03
Time for diagonalization                   ...    0.044 sec
Threshold for overlap eigenvalues          ... 1.000e-08
Number of eigenvalues below threshold      ... 0
Time for construction of square roots      ...    0.012 sec
Total time needed                          ...    0.056 sec

-------------------
DFT GRID GENERATION
-------------------

General Integration Accuracy     IntAcc      ...  4.340
Radial Grid Type                 RadialGrid  ... Gauss-Chebyshev
Angular Grid (max. acc.)         AngularGrid ... Lebedev-110
Angular grid pruning method      GridPruning ... 3 (G Style)
Weight generation scheme         WeightScheme... Becke
Basis function cutoff            BFCut       ...    1.0000e-11
Integration weight cutoff        WCut        ...    1.0000e-14
Grids for H and He will be reduced by one unit

# of grid points (after initial pruning)     ...   5088 (   0.0 sec)
# of grid points (after weights+screening)   ...   5034 (   0.0 sec)
nearest neighbour list constructed           ...    0.0 sec
Grid point re-assignment to atoms done       ...    0.0 sec
Grid point division into batches done        ...    0.0 sec
Reduced shell lists constructed in    0.0 sec

Total number of grid points                  ...     5034
Total number of batches                      ...       81
Average number of points per batch           ...       62
Average number of grid points per atom       ...     1678
Average number of shells per batch           ...    15.22 (84.55%)
Average number of basis functions per batch  ...    36.71 (87.40%)
Average number of large shells per batch     ...    13.74 (90.30%)
Average number of large basis fcns per batch ...    33.11 (90.20%)
Maximum spatial batch extension              ...  17.49, 38.86, 44.34 au
Average spatial batch extension              ...   5.17,  6.68,  6.69 au

Time for grid setup =    0.078 sec

--------------
SCF ITERATIONS
--------------
ITER       Energy         Delta-E        Max-DP      RMS-DP      [F,P]     Damp
               ***  Starting incremental Fock matrix formation  ***
                      *** Initiating the SOSCF procedure ***
                      *** Re-Reading the Fockian *** 
                      *** Removing any level shift *** 
ITER      Energy       Delta-E        Grad      Rot      Max-DP    RMS-DP
  0   -188.36019530 -188.3601952990  0.001120  0.001120  0.001450  0.000166
               *** Restarting incremental Fock matrix formation ***
  1   -188.36020689  -0.0000115897  0.000429  0.000430  0.001035  0.000077
  2   -188.36020756  -0.0000006672  0.000331  0.000203  0.000328  0.000028
  3   -188.36020806  -0.0000005071  0.000138  0.000143  0.000464  0.000021
  4   -188.36020810  -0.0000000414  0.000096  0.000049  0.000205  0.000010
  5   -188.36020817  -0.0000000656  0.000005  0.000002  0.000004  0.000000
                 **** Energy Check signals convergence ****
              ***Rediagonalizing the Fockian in SOSCF/NRSCF***

               *****************************************************
               *                     SUCCESS                       *
               *           SCF CONVERGED AFTER   6 CYCLES          *
               *****************************************************

Setting up the final grid:

General Integration Accuracy     IntAcc      ...  4.670
Radial Grid Type                 RadialGrid  ... Gauss-Chebyshev
Angular Grid (max. acc.)         AngularGrid ... Lebedev-302
Angular grid pruning method      GridPruning ... 3 (G Style)
Weight generation scheme         WeightScheme... Becke
Basis function cutoff            BFCut       ...    1.0000e-11
Integration weight cutoff        WCut        ...    1.0000e-14
Grids for H and He will be reduced by one unit

# of grid points (after initial pruning)     ...  18636 (   0.0 sec)
# of grid points (after weights+screening)   ...  18446 (   0.0 sec)
nearest neighbour list constructed           ...    0.0 sec
Grid point re-assignment to atoms done       ...    0.0 sec
Grid point division into batches done        ...    0.1 sec
Reduced shell lists constructed in    0.2 sec

Total number of grid points                  ...    18446
Total number of batches                      ...      289
Average number of points per batch           ...       63
Average number of grid points per atom       ...     6149
Average number of shells per batch           ...    13.61 (75.61%)
Average number of basis functions per batch  ...    32.76 (77.99%)
Average number of large shells per batch     ...    11.90 (87.46%)
Average number of large basis fcns per batch ...    28.51 (87.04%)
Maximum spatial batch extension              ...  21.58, 20.64, 24.02 au
Average spatial batch extension              ...   3.18,  4.00,  4.02 au

Final grid set up in    0.2 sec
Final integration                            ... done (   0.1 sec)
Change in XC energy                          ...    -0.000151774
Integrated number of electrons               ...    21.999986181
Previous integrated no of electrons          ...    21.999766777
Total Energy       :         -188.36035994 Eh           -5125.54597 eV
  Last Energy change         ...   -9.6634e-11  Tolerance :   1.0000e-08
  Last MAX-Density change    ...    3.9753e-07  Tolerance :   1.0000e-07
             **** THE GBW FILE WAS UPDATED (runs\co2\inputs\co2.gbw) ****
             **** DENSITY FILE WAS UPDATED (runs\co2\inputs\co2.scfp) ****
             **** ENERGY FILE WAS UPDATED (runs\co2\inputs\co2.en.tmp) ****
             **** THE GBW FILE WAS UPDATED (runs\co2\inputs\co2.gbw) ****
             **** DENSITY FILE WAS UPDATED (runs\co2\inputs\co2.scfp) ****
Total SCF time: 0 days 0 hours 0 min 5 sec 

-------------------------   --------------------
FINAL SINGLE POINT ENERGY      -188.360359944567
-------------------------   --------------------

------------------------------------------------------------------------------
                         ORCA SCF GRADIENT CALCULATION
------------------------------------------------------------------------------

Gradient of the Kohn-Sham DFT energy:
Kohn-Sham wavefunction type      ... RKS
Hartree-Fock exchange scaling    ...    0.200
Number of operators              ...    1
Number of atoms                  ...    3
Basis set dimensions             ...   42
Integral neglect threshold       ... 2.5e-11
Integral primitive cutoff        ... 2.5e-12

Nuclear repulsion gradient       ... done
One Electron Gradient            ... done
Pre-screening matrix             ... done
Starting the two electron gradient:
Two electron gradient done
Exchange-correlation gradient    ... done

------------------
CARTESIAN GRADIENT
------------------

   1   O   :    0.000706166   -0.000000000   -0.000000000
   2   C   :    0.000000000    0.000000000   -0.000000000
   3   O   :   -0.000706166    0.000000000    0.000000000

Difference to translation invariance:
           :   -0.0000000000    0.0000000000    0.0000000000

Norm of the cartesian gradient     ...    0.0009986689
RMS gradient                       ...    0.0003328896
MAX gradient                       ...    0.0007061656

-------
TIMINGS
-------

Total SCF gradient time            ...        1.483 sec

One electron gradient       ....       0.006 sec  (  0.4%)
Prescreening matrices       ....       0.033 sec  (  2.2%)
Two electron gradient       ....       0.335 sec  ( 22.6%)
XC gradient                 ....       0.787 sec  ( 53.1%)
------------------------------------------------------------------------------
                         ORCA GEOMETRY RELAXATION STEP
------------------------------------------------------------------------------

Reading the OPT-File                    .... done
Getting information on internals        .... done
Copying old internal coords+grads       .... done
Making the new internal coordinates     .... (new redundants).... done
Validating the new internal coordinates .... (new redundants).... done
Calculating the B-matrix                .... done
Calculating the G,G- and P matrices     .... done
Transforming gradient to internals      .... done
Projecting the internal gradient        .... done
Number of atoms                         ....   3
Number of internal coordinates          ....   4
Current Energy                          ....  -188.360359945 Eh
Current gradient norm                   ....     0.000998669 Eh/bohr
Maximum allowed component of the step   ....  0.300
Current trust radius                    ....  0.300
Updating the Hessian (BFGS)             .... done
Forming the augmented Hessian           .... done
Diagonalizing the augmented Hessian     .... done
Last element of RFO vector              ....  0.999999641
Lowest eigenvalues of augmented Hessian:
 -0.000000846  0.563988660  0.563988660  1.178520062
Length of the computed step             ....  0.000847392
The final length of the internal step   ....  0.000847392
Converting the step to cartesian space:
 Initial RMS(Int)=    0.0004236962
Transforming coordinates:
 Iter   0:  RMS(Cart)=    0.0002824641 RMS(Int)=    0.0004236962
 Iter   1:  RMS(Cart)=    0.0000000000 RMS(Int)=    0.0000000000
done
Storing new coordinates                 .... done

                                .--------------------.
          ----------------------|Geometry convergence|-------------------------
          Item                value                   Tolerance       Converged
          ---------------------------------------------------------------------
          Energy change      -0.0000461477            0.0000050000      NO
          RMS gradient        0.0004993345            0.0001000000      NO
          MAX gradient        0.0007061656            0.0003000000      NO
          RMS step            0.0004236962            0.0020000000      YES
          MAX step            0.0005991969            0.0040000000      YES
          ........................................................
          Max(Bonds)      0.0003      Max(Angles)    0.00
          Max(Dihed)        0.00      Max(Improp)    0.00
          ---------------------------------------------------------------------

The optimization has not yet converged - more geometry cycles are needed


    ---------------------------------------------------------------------------
                         Redundant Internal Coordinates
                            (Angstroem and degrees)

        Definition                    Value    dE/dq     Step     New-Value
    ----------------------------------------------------------------------------
     1. B(C   1,O   0)                1.1630 -0.000706  0.0003    1.1633   
     2. B(O   2,C   1)                1.1630 -0.000706  0.0003    1.1633   
     3. L(O   0,C   1,O   2, 2)       180.00  0.000000   -0.00    180.00   
     4. L(O   0,C   1,O   2, 1)       180.00  0.000000   -0.00    180.00   
    ----------------------------------------------------------------------------

         *************************************************************
         *                GEOMETRY OPTIMIZATION CYCLE   3            *
         *************************************************************
---------------------------------
CARTESIAN COORDINATES (ANGSTROEM)
---------------------------------
  O     -1.163326   -0.000000   -0.000000
  C      0.000000    0.000000    0.000000
  O      1.163326   -0.000000   -0.000000

----------------------------
CARTESIAN COORDINATES (A.U.)
----------------------------
  NO LB      ZA    FRAG     MASS         X           Y           Z
   0 O     8.0000    0    15.999   -2.198367   -0.000000   -0.000000
   1 C     6.0000    0    12.011    0.000000    0.000000    0.000000
   2 O     8.0000    0    15.999    2.198367   -0.000000   -0.000000

--------------------------------
INTERNAL COORDINATES (ANGSTROEM)
--------------------------------
 O      0   0   0     0.000000000000     0.00000000     0.00000000
 C      1   0   0     1.163325609700     0.00000000     0.00000000
 O      2   1   0     1.163325609700   180.00000000     0.00000000

---------------------------
INTERNAL COORDINATES (A.U.)
---------------------------
 O      0   0   0     0.000000000000     0.00000000     0.00000000
 C      1   0   0     2.198366806910     0.00000000     0.00000000
 O      2   1   0     2.198366806909   180.00000000     0.00000000


Diagonalization of the overlap matrix:
Smallest eigenvalue                        ... 9.136e-03
Time for diagonalization                   ...    0.003 sec
Threshold for overlap eigenvalues          ... 1.000e-08
Number of eigenvalues below threshold      ... 0
Time for construction of square roots      ...    0.002 sec
Total time needed                          ...    0.005 sec

-------------------
DFT GRID GENERATION
-------------------

General Integration Accuracy     IntAcc      ...  4.340
Radial Grid Type                 RadialGrid  ... Gauss-Chebyshev
Angular Grid (max. acc.)         AngularGrid ... Lebedev-110
Angular grid pruning method      GridPruning ... 3 (G Style)
Weight generation scheme         WeightScheme... Becke
Basis function cutoff            BFCut       ...    1.0000e-11
Integration weight cutoff        WCut        ...    1.0000e-14
Grids for H and He will be reduced by one unit

# of grid points (after initial pruning)     ...   5088 (   0.0 sec)
# of grid points (after weights+screening)   ...   5034 (   0.0 sec)
nearest neighbour list constructed           ...    0.0 sec
Grid point re-assignment to atoms done       ...    0.0 sec
Grid point division into batches done        ...    0.0 sec
Reduced shell lists constructed in    0.0 sec

Total number of grid points                  ...     5034
Total number of batches                      ...       81
Average number of points per batch           ...       62
Average number of grid points per atom       ...     1678
Average number of shells per batch           ...    15.21 (84.49%)
Average number of basis functions per batch  ...    36.70 (87.37%)
Average number of large shells per batch     ...    13.71 (90.14%)
Average number of large basis fcns per batch ...    33.00 (89.93%)
Maximum spatial batch extension              ...  17.49, 38.86, 44.34 au
Average spatial batch extension              ...   5.17,  6.67,  6.69 au

Time for grid setup =    0.056 sec

--------------
SCF ITERATIONS
--------------
ITER       Energy         Delta-E        Max-DP      RMS-DP      [F,P]     Damp
               ***  Starting incremental Fock matrix formation  ***
                      *** Initiating the SOSCF procedure ***
                      *** Re-Reading the Fockian *** 
                      *** Removing any level shift *** 
ITER      Energy       Delta-E        Grad      Rot      Max-DP    RMS-DP
  0   -188.36020917 -188.3602091657  0.000118  0.000118  0.000152  0.000017
               *** Restarting incremental Fock matrix formation ***
  1   -188.36020929  -0.0000001278  0.000044  0.000046  0.000108  0.000008
  2   -188.36020930  -0.0000000075  0.000033  0.000021  0.000034  0.000003
  3   -188.36020931  -0.0000000053  0.000014  0.000015  0.000048  0.000002
  4   -188.36020931  -0.0000000005  0.000010  0.000005  0.000021  0.000001
                  ***Gradient check signals convergence***
              ***Rediagonalizing the Fockian in SOSCF/NRSCF***

               *****************************************************
               *                     SUCCESS                       *
               *           SCF CONVERGED AFTER   5 CYCLES          *
               *****************************************************

Setting up the final grid:

General Integration Accuracy     IntAcc      ...  4.670
Radial Grid Type                 RadialGrid  ... Gauss-Chebyshev
Angular Grid (max. acc.)         AngularGrid ... Lebedev-302
Angular grid pruning method      GridPruning ... 3 (G Style)
Weight generation scheme         WeightScheme... Becke
Basis function cutoff            BFCut       ...    1.0000e-11
Integration weight cutoff        WCut        ...    1.0000e-14
Grids for H and He will be reduced by one unit

# of grid points (after initial pruning)     ...  18636 (   0.0 sec)
# of grid points (after weights+screening)   ...  18446 (   0.0 sec)
nearest neighbour list constructed           ...    0.0 sec
Grid point re-assignment to atoms done       ...    0.0 sec
Grid point division into batches done        ...    0.1 sec
Reduced shell lists constructed in    0.2 sec

Total number of grid points                  ...    18446
Total number of batches                      ...      289
Average number of points per batch           ...       63
Average number of grid points per atom       ...     6149
Average number of shells per batch           ...    13.61 (75.63%)
Average number of basis functions per batch  ...    32.74 (77.96%)
Average number of large shells per batch     ...    11.91 (87.51%)
Average number of large basis fcns per batch ...    28.52 (87.10%)
Maximum spatial batch extension              ...  21.58, 20.64, 24.02 au
Average spatial batch extension              ...   3.18,  4.00,  4.01 au

Final grid set up in    0.2 sec
Final integration                            ... done (   0.1 sec)
Change in XC energy                          ...    -0.000151080
Integrated number of electrons               ...    21.999986243
Previous integrated no of electrons          ...    21.999767690
Total Energy       :         -188.36036039 Eh           -5125.54598 eV
  Last Energy change         ...   -6.9215e-10  Tolerance :   1.0000e-08
  Last MAX-Density change    ...    4.5878e-07  Tolerance :   1.0000e-07
             **** THE GBW FILE WAS UPDATED (runs\co2\inputs\co2.gbw) ****
             **** DENSITY FILE WAS UPDATED (runs\co2\inputs\co2.scfp) ****
             **** ENERGY FILE WAS UPDATED (runs\co2\inputs\co2.en.tmp) ****
             **** THE GBW FILE WAS UPDATED (runs\co2\inputs\co2.gbw) ****
             **** DENSITY FILE WAS UPDATED (runs\co2\inputs\co2.scfp) ****
Total SCF time: 0 days 0 hours 0 min 7 sec 

-------------------------   --------------------
FINAL SINGLE POINT ENERGY      -188.360360387785
-------------------------   --------------------

------------------------------------------------------------------------------
                         ORCA SCF GRADIENT CALCULATION
------------------------------------------------------------------------------

Gradient of the Kohn-Sham DFT energy:
Kohn-Sham wavefunction type      ... RKS
Hartree-Fock exchange scaling    ...    0.200
Number of operators              ...    1
Number of atoms                  ...    3
Basis set dimensions             ...   42
Integral neglect threshold       ... 2.5e-11
Integral primitive cutoff        ... 2.5e-12

Nuclear repulsion gradient       ... done
One Electron Gradient            ... done
Pre-screening matrix             ... done
Starting the two electron gradient:
Two electron gradient done
Exchange-correlation gradient    ... done

------------------
CARTESIAN GRADIENT
------------------

   1   O   :    0.000007033   -0.000000000   -0.000000000
   2   C   :   -0.000000000   -0.000000000   -0.000000000
   3   O   :   -0.000007033    0.000000000    0.000000000

Difference to translation invariance:
           :   -0.0000000000   -0.0000000000   -0.0000000000

Norm of the cartesian gradient     ...    0.0000099456
RMS gradient                       ...    0.0000033152
MAX gradient                       ...    0.0000070327

-------
TIMINGS
-------

Total SCF gradient time            ...        1.489 sec

One electron gradient       ....       0.006 sec  (  0.4%)
Prescreening matrices       ....       0.031 sec  (  2.1%)
Two electron gradient       ....       0.363 sec  ( 24.4%)
XC gradient                 ....       0.751 sec  ( 50.4%)
------------------------------------------------------------------------------
                         ORCA GEOMETRY RELAXATION STEP
------------------------------------------------------------------------------

Reading the OPT-File                    .... done
Getting information on internals        .... done
Copying old internal coords+grads       .... done
Making the new internal coordinates     .... (new redundants).... done
Validating the new internal coordinates .... (new redundants).... done
Calculating the B-matrix                .... done
Calculating the G,G- and P matrices     .... done
Transforming gradient to internals      .... done
Projecting the internal gradient        .... done
Number of atoms                         ....   3
Number of internal coordinates          ....   4
Current Energy                          ....  -188.360360388 Eh
Current gradient norm                   ....     0.000009946 Eh/bohr
Maximum allowed component of the step   ....  0.300
Current trust radius                    ....  0.300
Updating the Hessian (BFGS)             .... done
Forming the augmented Hessian           .... done
Diagonalizing the augmented Hessian     .... done
Last element of RFO vector              ....  1.000000000
Lowest eigenvalues of augmented Hessian:
 -0.000000000  0.563988660  0.563988660  1.166783351
Length of the computed step             ....  0.000008524
The final length of the internal step   ....  0.000008524
Converting the step to cartesian space:
 Initial RMS(Int)=    0.0000042620
Transforming coordinates:
 Iter   0:  RMS(Cart)=    0.0000028413 RMS(Int)=    0.0000042620
 Iter   1:  RMS(Cart)=    0.0000000057 RMS(Int)=    0.0000000421
done
Storing new coordinates                 .... done

                                .--------------------.
          ----------------------|Geometry convergence|-------------------------
          Item                value                   Tolerance       Converged
          ---------------------------------------------------------------------
          Energy change      -0.0000004432            0.0000050000      YES
          RMS gradient        0.0000049728            0.0001000000      YES
          MAX gradient        0.0000070327            0.0003000000      YES
          RMS step            0.0000042620            0.0020000000      YES
          MAX step            0.0000060274            0.0040000000      YES
          ........................................................
          Max(Bonds)      0.0000      Max(Angles)    0.00
          Max(Dihed)        0.00      Max(Improp)    0.00
          ---------------------------------------------------------------------

                    ***********************HURRAY********************
                    ***        THE OPTIMIZATION HAS CONVERGED     ***
                    *************************************************


    ---------------------------------------------------------------------------
                         Redundant Internal Coordinates

                          --- Optimized Parameters ---  
                            (Angstroem and degrees)

        Definition                    OldVal   dE/dq     Step     FinalVal
    ----------------------------------------------------------------------------
     1. B(C   1,O   0)                1.1633 -0.000007  0.0000    1.1633   
     2. B(O   2,C   1)                1.1633 -0.000007  0.0000    1.1633   
     3. L(O   0,C   1,O   2, 2)       180.00 -0.000000    0.00    180.00   
     4. L(O   0,C   1,O   2, 1)       180.00  0.000000   -0.00    180.00   
    ----------------------------------------------------------------------------
                 *******************************************************
                 *** FINAL ENERGY EVALUATION AT THE STATIONARY POINT ***
                 ***               (AFTER    3 CYCLES)               ***
                 *******************************************************
---------------------------------
CARTESIAN COORDINATES (ANGSTROEM)
---------------------------------
  O     -1.163329    0.000000    0.000000
  C      0.000000   -0.000000   -0.000000
  O      1.163329    0.000000    0.000000

----------------------------
CARTESIAN COORDINATES (A.U.)
----------------------------
  NO LB      ZA    FRAG     MASS         X           Y           Z
   0 O     8.0000    0    15.999   -2.198373    0.000000    0.000000
   1 C     6.0000    0    12.011    0.000000   -0.000000   -0.000000
   2 O     8.0000    0    15.999    2.198373    0.000000    0.000000

--------------------------------
INTERNAL COORDINATES (ANGSTROEM)
--------------------------------
 O      0   0   0     0.000000000000     0.00000000     0.00000000
 C      1   0   0     1.163328799262     0.00000000     0.00000000
 O      2   1   0     1.163328799201   179.99999852     0.00000000

---------------------------
INTERNAL COORDINATES (A.U.)
---------------------------
 O      0   0   0     0.000000000000     0.00000000     0.00000000
 C      1   0   0     2.198372834309     0.00000000     0.00000000
 O      2   1   0     2.198372834193   179.99999852     0.00000000

---------------------
BASIS SET INFORMATION
---------------------
There are 2 groups of distinct atoms

 Group   1 Type O   : 7s4p1d contracted to 3s2p1d pattern {511/31/1}
 Group   2 Type C   : 7s4p1d contracted to 3s2p1d pattern {511/31/1}

Atom   0O    basis set group =>   1
Atom   1C    basis set group =>   2
Atom   2O    basis set group =>   1
------------------------------------------------------------------------------
                           ORCA GTO INTEGRAL CALCULATION
------------------------------------------------------------------------------

                         BASIS SET STATISTICS AND STARTUP INFO

 # of primitive gaussian shells          ...   36
 # of primitive gaussian functions       ...   72
 # of contracted shells                  ...   18
 # of contracted basis functions         ...   42
 Highest angular momentum                ...    2
 Maximum contraction depth               ...    5
 Integral package used                   ... LIBINT
 Integral threshhold            Thresh   ...  2.500e-11
 Primitive cut-off              TCut     ...  2.500e-12


------------------------------ INTEGRAL EVALUATION ----------------------------


 * One electron integrals 
 Pre-screening matrix                    ... done
 Shell pair data                         ... done (   0.000 sec)

Timings:
 Total evaluation time               ...     0.006 sec (   0.000 min)
 One electron matrix time            ...     0.013 sec (   0.000 min) =216.7%
 Schwartz matrix evaluation time     ...     0.445 sec (   0.007 min) =7416.7%

-------------------------------------------------------------------------------
                                 ORCA SCF
-------------------------------------------------------------------------------

------------
SCF SETTINGS
------------
Hamiltonian:
 Density Functional     Method          .... DFT(GTOs)
 Exchange Functional    Exchange        .... B88
   X-Alpha parameter    XAlpha          ....  0.666667
   Becke's b parameter  XBeta           ....  0.004200
 Correlation Functional Correlation     .... LYP
 LDA part of GGA corr.  LDAOpt          .... VWN-5
 Gradients option       PostSCFGGA      .... off
 Hybrid DFT is turned on
   Fraction HF Exchange ScalHFX         ....  0.200000
   Scaling of DF-GGA-X  ScalDFX         ....  0.720000
   Scaling of DF-GGA-C  ScalDFC         ....  0.810000
   Scaling of DF-LDA-C  ScalLDAC        ....  1.000000
   Perturbative correction              ....  0.000000
   Density functional embedding theory  .... OFF
   NL short-range parameter             ....  4.800000


General Settings:
 Integral files         IntName         .... runs\co2\inputs\co2
 Hartree-Fock type      HFTyp           .... RHF
 Total Charge           Charge          ....    0
 Multiplicity           Mult            ....    1
 Number of Electrons    NEL             ....   22
 Basis Dimension        Dim             ....   42
 Nuclear Repulsion      ENuc            ....     58.2248825157 Eh

Convergence Acceleration:
 DIIS                   CNVDIIS         .... on
   Start iteration      DIISMaxIt       ....    12
   Startup error        DIISStart       ....  0.200000
   # of expansion vecs  DIISMaxEq       ....     5
   Bias factor          DIISBfac        ....   1.050
   Max. coefficient     DIISMaxC        ....  10.000
 Newton-Raphson         CNVNR           .... off
 SOSCF                  CNVSOSCF        .... on
   Start iteration      SOSCFMaxIt      ....   150
   Startup grad/error   SOSCFStart      ....  0.003300
 Level Shifting         CNVShift        .... on
   Level shift para.    LevelShift      ....    0.2500
   Turn off err/grad.   ShiftErr        ....    0.0010
 Zerner damping         CNVZerner       .... off
 Static damping         CNVDamp         .... on
   Fraction old density DampFac         ....    0.7000
   Max. Damping (<1)    DampMax         ....    0.9800
   Min. Damping (>=0)   DampMin         ....    0.0000
   Turn off err/grad.   DampErr         ....    0.1000
 Fernandez-Rico         CNVRico         .... off

SCF Procedure:
 Maximum # iterations   MaxIter         ....   125
 SCF integral mode      SCFMode         .... Direct
   Integral package                     .... LIBINT
 Reset frequency        DirectResetFreq ....    20
 Integral Threshold     Thresh          ....  2.500e-11 Eh
 Primitive CutOff       TCut            ....  2.500e-12 Eh

Convergence Tolerance:
 Convergence Check Mode ConvCheckMode   .... Total+1el-Energy
 Convergence forced     ConvForced      .... 0
 Energy Change          TolE            ....  1.000e-08 Eh
 1-El. energy change                    ....  1.000e-05 Eh
 Orbital Gradient       TolG            ....  1.000e-05
 Orbital Rotation angle TolX            ....  1.000e-05
 DIIS Error             TolErr          ....  5.000e-07


Diagonalization of the overlap matrix:
Smallest eigenvalue                        ... 9.136e-03
Time for diagonalization                   ...    0.003 sec
Threshold for overlap eigenvalues          ... 1.000e-08
Number of eigenvalues below threshold      ... 0
Time for construction of square roots      ...    0.002 sec
Total time needed                          ...    0.005 sec

---------------------
INITIAL GUESS: MOREAD
---------------------
Guess MOs are being read from file: runs\co2\inputs\co2.gbw
Input Geometry matches current geometry (good)
Input basis set matches current basis set (good)
MOs were renormalized
MOs were reorthogonalized (Cholesky)
                      ------------------
                      INITIAL GUESS DONE (   0.0 sec)
                      ------------------
-------------------
DFT GRID GENERATION
-------------------

General Integration Accuracy     IntAcc      ...  4.340
Radial Grid Type                 RadialGrid  ... Gauss-Chebyshev
Angular Grid (max. acc.)         AngularGrid ... Lebedev-110
Angular grid pruning method      GridPruning ... 3 (G Style)
Weight generation scheme         WeightScheme... Becke
Basis function cutoff            BFCut       ...    1.0000e-11
Integration weight cutoff        WCut        ...    1.0000e-14
Grids for H and He will be reduced by one unit

# of grid points (after initial pruning)     ...   5088 (   0.0 sec)
# of grid points (after weights+screening)   ...   5034 (   0.0 sec)
nearest neighbour list constructed           ...    0.0 sec
Grid point re-assignment to atoms done       ...    0.0 sec
Grid point division into batches done        ...    0.0 sec
Reduced shell lists constructed in    0.0 sec

Total number of grid points                  ...     5034
Total number of batches                      ...       81
Average number of points per batch           ...       62
Average number of grid points per atom       ...     1678
Average number of shells per batch           ...    15.21 (84.49%)
Average number of basis functions per batch  ...    36.70 (87.37%)
Average number of large shells per batch     ...    13.72 (90.22%)
Average number of large basis fcns per batch ...    33.01 (89.96%)
Maximum spatial batch extension              ...  17.49, 38.86, 44.34 au
Average spatial batch extension              ...   5.18,  6.63,  6.68 au

Time for grid setup =    0.058 sec

--------------
SCF ITERATIONS
--------------
ITER       Energy         Delta-E        Max-DP      RMS-DP      [F,P]     Damp
               ***  Starting incremental Fock matrix formation  ***
                      *** Initiating the SOSCF procedure ***
                      *** Re-Reading the Fockian *** 
                      *** Removing any level shift *** 
ITER      Energy       Delta-E        Grad      Rot      Max-DP    RMS-DP
  0   -188.36020931 -188.3602093147  0.000001  0.000001  0.000002  0.000000
               *** Restarting incremental Fock matrix formation ***
                  ***Gradient check signals convergence***
              ***Rediagonalizing the Fockian in SOSCF/NRSCF***

               *****************************************************
               *                     SUCCESS                       *
               *           SCF CONVERGED AFTER   1 CYCLES          *
               *****************************************************

Setting up the final grid:

General Integration Accuracy     IntAcc      ...  4.670
Radial Grid Type                 RadialGrid  ... Gauss-Chebyshev
Angular Grid (max. acc.)         AngularGrid ... Lebedev-302
Angular grid pruning method      GridPruning ... 3 (G Style)
Weight generation scheme         WeightScheme... Becke
Basis function cutoff            BFCut       ...    1.0000e-11
Integration weight cutoff        WCut        ...    1.0000e-14
Grids for H and He will be reduced by one unit

# of grid points (after initial pruning)     ...  18636 (   0.0 sec)
# of grid points (after weights+screening)   ...  18446 (   0.0 sec)
nearest neighbour list constructed           ...    0.0 sec
Grid point re-assignment to atoms done       ...    0.0 sec
Grid point division into batches done        ...    0.1 sec
Reduced shell lists constructed in    0.2 sec

Total number of grid points                  ...    18446
Total number of batches                      ...      289
Average number of points per batch           ...       63
Average number of grid points per atom       ...     6149
Average number of shells per batch           ...    13.60 (75.56%)
Average number of basis functions per batch  ...    32.73 (77.93%)
Average number of large shells per batch     ...    11.91 (87.60%)
Average number of large basis fcns per batch ...    28.57 (87.28%)
Maximum spatial batch extension              ...  21.58, 20.64, 24.02 au
Average spatial batch extension              ...   3.18,  4.00,  4.01 au

Final grid set up in    0.2 sec
Final integration                            ... done (   0.2 sec)
Change in XC energy                          ...    -0.000151073
Integrated number of electrons               ...    21.999986244
Previous integrated no of electrons          ...    21.999767700

----------------
TOTAL SCF ENERGY
----------------

Total Energy       :         -188.36036039 Eh           -5125.54598 eV

Components:
Nuclear Repulsion  :           58.22488252 Eh            1584.37960 eV
Electronic Energy  :         -246.58524290 Eh           -6709.92559 eV
One Electron Energy:         -372.35906230 Eh          -10132.40521 eV
Two Electron Energy:          125.77381940 Eh            3422.47962 eV

Virial components:
Potential Energy   :         -375.39140443 Eh          -10214.91943 eV
Kinetic Energy     :          187.03104404 Eh            5089.37345 eV
Virial Ratio       :            2.00710746


DFT components:
N(Alpha)           :       10.999993121839 electrons
N(Beta)            :       10.999993121839 electrons
N(Total)           :       21.999986243678 electrons
E(X)               :      -17.215781357597 Eh       
E(C)               :       -0.930105274099 Eh       
E(XC)              :      -18.145886631696 Eh       
DFET-embed. en.    :        0.000000000000 Eh       

---------------
SCF CONVERGENCE
---------------

  Last Energy change         ...   -1.7621e-11  Tolerance :   1.0000e-08
  Last MAX-Density change    ...    1.9203e-06  Tolerance :   1.0000e-07
  Last RMS-Density change    ...    1.3148e-07  Tolerance :   5.0000e-09
  Last Orbital Gradient      ...    8.3844e-07  Tolerance :   1.0000e-05
  Last Orbital Rotation      ...    8.6141e-07  Tolerance :   1.0000e-05

             **** THE GBW FILE WAS UPDATED (runs\co2\inputs\co2.gbw) ****
             **** DENSITY FILE WAS UPDATED (runs\co2\inputs\co2.scfp) ****
             **** ENERGY FILE WAS UPDATED (runs\co2\inputs\co2.en.tmp) ****
             **** THE GBW FILE WAS UPDATED (runs\co2\inputs\co2.gbw) ****
             **** DENSITY FILE WAS UPDATED (runs\co2\inputs\co2.scfp) ****
----------------
ORBITAL ENERGIES
----------------

  NO   OCC          E(Eh)            E(eV) 
   0   2.0000     -19.214634      -522.8568 
   1   2.0000     -19.214566      -522.8549 
   2   2.0000     -10.376325      -282.3542 
   3   2.0000      -1.147187       -31.2165 
   4   2.0000      -1.108355       -30.1599 
   5   2.0000      -0.550955       -14.9923 
   6   2.0000      -0.516118       -14.0443 
   7   2.0000      -0.516118       -14.0443 
   8   2.0000      -0.514079       -13.9888 
   9   2.0000      -0.370130       -10.0718 
  10   2.0000      -0.370130       -10.0718 
  11   0.0000       0.033521         0.9121 
  12   0.0000       0.033521         0.9121 
  13   0.0000       0.061461         1.6724 
  14   0.0000       0.342239         9.3128 
  15   0.0000       0.417350        11.3567 
  16   0.0000       0.417350        11.3567 
  17   0.0000       0.465864        12.6768 
  18   0.0000       0.758842        20.6492 
  19   0.0000       0.807567        21.9750 
  20   0.0000       0.901984        24.5442 
  21   0.0000       0.901984        24.5442 
  22   0.0000       1.079729        29.3809 
  23   0.0000       1.092695        29.7338 
  24   0.0000       1.092695        29.7338 
  25   0.0000       1.232636        33.5417 
  26   0.0000       1.528910        41.6037 
  27   0.0000       1.528969        41.6054 
  28   0.0000       1.565097        42.5885 
  29   0.0000       1.574487        42.8440 
  30   0.0000       1.574487        42.8440 
  31   0.0000       2.548803        69.3565 
  32   0.0000       2.549552        69.3768 
  33   0.0000       2.668127        72.6034 
  34   0.0000       2.668846        72.6230 
  35   0.0000       2.765076        75.2416 
  36   0.0000       2.765076        75.2416 
  37   0.0000       2.827131        76.9301 
  38   0.0000       3.533786        96.1592 
  39   0.0000       3.541233        96.3618 
  40   0.0000       3.541233        96.3618 
  41   0.0000       3.842300       104.5543 

                    ********************************
                    * MULLIKEN POPULATION ANALYSIS *
                    ********************************

-----------------------
MULLIKEN ATOMIC CHARGES
-----------------------
   0 O :   -0.132256
   1 C :    0.264513
   2 O :   -0.132256
Sum of atomic charges:   -0.0000000

--------------------------------
MULLIKEN REDUCED ORBITAL CHARGES
--------------------------------
  0 O s       :     3.720291  s :     3.720291
      pz      :     1.552607  p :     4.388670
      px      :     1.283456
      py      :     1.552607
      dz2     :     0.002434  d :     0.023295
      dxz     :     0.006780
      dyz     :     0.000000
      dx2y2   :     0.007302
      dxy     :     0.006780
  1 C s       :     2.963953  s :     2.963953
      pz      :     0.823394  p :     2.625421
      px      :     0.978632
      py      :     0.823394
      dz2     :     0.007612  d :     0.146113
      dxz     :     0.057832
      dyz     :     0.000000
      dx2y2   :     0.022837
      dxy     :     0.057832
  2 O s       :     3.720291  s :     3.720291
      pz      :     1.552607  p :     4.388670
      px      :     1.283456
      py      :     1.552607
      dz2     :     0.002434  d :     0.023295
      dxz     :     0.006780
      dyz     :     0.000000
      dx2y2   :     0.007302
      dxy     :     0.006780


                     *******************************
                     * LOEWDIN POPULATION ANALYSIS *
                     *******************************

----------------------
LOEWDIN ATOMIC CHARGES
----------------------
   0 O :   -0.066869
   1 C :    0.133737
   2 O :   -0.066869

-------------------------------
LOEWDIN REDUCED ORBITAL CHARGES
-------------------------------
  0 O s       :     3.531602  s :     3.531602
      pz      :     1.524081  p :     4.497308
      px      :     1.449146
      py      :     1.524081
      dz2     :     0.005325  d :     0.037958
      dxz     :     0.008329
      dyz     :     0.000000
      dx2y2   :     0.015976
      dxy     :     0.008329
  1 C s       :     2.809318  s :     2.809318
      pz      :     0.819406  p :     2.739246
      px      :     1.100435
      py      :     0.819406
      dz2     :     0.021537  d :     0.317699
      dxz     :     0.115774
      dyz     :     0.000000
      dx2y2   :     0.064612
      dxy     :     0.115774
  2 O s       :     3.531602  s :     3.531602
      pz      :     1.524081  p :     4.497308
      px      :     1.449146
      py      :     1.524081
      dz2     :     0.005325  d :     0.037958
      dxz     :     0.008329
      dyz     :     0.000000
      dx2y2   :     0.015976
      dxy     :     0.008329


                      *****************************
                      * MAYER POPULATION ANALYSIS *
                      *****************************

  NA   - Mulliken gross atomic population
  ZA   - Total nuclear charge
  QA   - Mulliken gross atomic charge
  VA   - Mayer's total valence
  BVA  - Mayer's bonded valence
  FA   - Mayer's free valence

  ATOM       NA         ZA         QA         VA         BVA        FA
  0 O      8.1323     8.0000    -0.1323     2.4426     2.4426    -0.0000
  1 C      5.7355     6.0000     0.2645     4.3445     4.3445    -0.0000
  2 O      8.1323     8.0000    -0.1323     2.4426     2.4426     0.0000

  Mayer bond orders larger than 0.100000
B(  0-O ,  1-C ) :   2.1723 B(  0-O ,  2-O ) :   0.2704 B(  1-C ,  2-O ) :   2.1723 


-------
TIMINGS
-------

Total SCF time: 0 days 0 hours 0 min 2 sec 

Total time                  ....       2.209 sec
Sum of individual times     ....       1.394 sec  ( 63.1%)

Fock matrix formation       ....       1.055 sec  ( 47.8%)
  XC integration            ....       0.287 sec  ( 27.2% of F)
    Basis function eval.    ....       0.069 sec  ( 24.0% of XC)
    Density eval.           ....       0.086 sec  ( 30.0% of XC)
    XC-Functional eval.     ....       0.032 sec  ( 11.1% of XC)
    XC-Potential eval.      ....       0.048 sec  ( 16.7% of XC)
Diagonalization             ....       0.001 sec  (  0.0%)
Density matrix formation    ....       0.001 sec  (  0.0%)
Population analysis         ....       0.031 sec  (  1.4%)
Initial guess               ....       0.003 sec  (  0.1%)
Orbital Transformation      ....       0.000 sec  (  0.0%)
Orbital Orthonormalization  ....       0.000 sec  (  0.0%)
DIIS solution               ....       0.000 sec  (  0.0%)
SOSCF solution              ....       0.026 sec  (  1.2%)
Grid generation             ....       0.277 sec  ( 12.5%)

-------------------------   --------------------
FINAL SINGLE POINT ENERGY      -188.360360388041
-------------------------   --------------------

                                *** OPTIMIZATION RUN DONE ***

                            ***************************************
                            *     ORCA property calculations      *
                            ***************************************

                                    ---------------------
                                    Active property flags
                                    ---------------------
   (+) Dipole Moment


------------------------------------------------------------------------------
                       ORCA ELECTRIC PROPERTIES CALCULATION
------------------------------------------------------------------------------

Dipole Moment Calculation                       ... on
Quadrupole Moment Calculation                   ... off
Polarizability Calculation                      ... off
GBWName                                         ... runs\co2\inputs\co2.gbw
Electron density file                           ... runs\co2\inputs\co2.scfp
The origin for moment calculation is the CENTER OF MASS  = (-0.000000,  0.000000  0.000000)

-------------
DIPOLE MOMENT
-------------
                                X             Y             Z
Electronic contribution:     -0.00000      -0.00000      -0.00000
Nuclear contribution   :     -0.00000       0.00000       0.00000
                        -----------------------------------------
Total Dipole Moment    :     -0.00000      -0.00000      -0.00000
                        -----------------------------------------
Magnitude (a.u.)       :      0.00000
Magnitude (Debye)      :      0.00000



--------------------
Rotational spectrum 
--------------------
 
Rotational constants in cm-1:     0.000000     0.389286     0.389286 
Rotational constants in MHz :     0.000000 11670.509346 11670.509346 

 Dipole components along the rotational axes: 
x,y,z [a.u.] :     0.000000     0.000000    -0.000000 
x,y,z [Debye]:     0.000000     0.000000    -0.000000 

 

-------------------------------------------------------------------------------
                               ORCA SCF HESSIAN
-------------------------------------------------------------------------------

Hessian of the Kohn-Sham DFT energy:
Kohn-Sham wavefunction type                      ... RKS
Hartree-Fock exchange scaling                    ...    0.200
Number of operators                              ...    1
Number of atoms                                  ...    3
Basis set dimensions                             ...   42
Integral neglect threshold                       ... 2.5e-11
Integral primitive cutoff                        ... 2.5e-12

Setting up DFT Hessian calculations              ... 
Electron density on the grid                     ... found on disk
Electron density on the final grid               ... found on disk
Building xc-kernel on the grid                   ... done   (      0.0 sec)
Building xc-kernel on the final grid             ... done   (      0.1 sec)
                                                     done   (      0.2 sec)

Nuclear repulsion Hessian                        ... done   (      0.0 sec)

----------------------------------------------
Forming right-hand sides of CP-SCF equations     ...
----------------------------------------------
One electron integral derivatives                ... done   (      0.3 sec)
Transforming the overlap derivative matrices     ... done   (      0.0 sec)
Making the Q(x) pseudodensities                  ... done   (      0.0 sec)
Adding the E*S(x)*S(y) terms to the Hessian      ... done   (      0.0 sec)
Calculating energy weighted overlap derivatives  ... done   (      0.3 sec)
Two electron integral derivatives                ... done   (      0.9 sec)
Exchange-correlation integral derivatives        ... done   (      2.8 sec)
tr(F(y)Q(x)) contribution to the Hessian         ... done   (      0.0 sec)
Response fock operator R(S(x))                   ... done   (      0.6 sec)
XC Response fock operator R(S(x))                ... done   (      0.6 sec)
tr(F(y)S(x)) contribution to the Hessian         ... done   (      0.0 sec)
Transforming and finalizing RHSs                 ... done   (      0.0 sec)

----------------------------------------------
Solving the CP-SCF equations                     ...
----------------------------------------------
     CP-SCF ITERATION   0: 
     CP-SCF ITERATION   1:      0.006256088560
     CP-SCF ITERATION   2:      0.000256757774
     CP-SCF ITERATION   3:      0.000043282394
     CP-SCF ITERATION   4:      0.000000938580
     CP-SCF ITERATION   5:      0.000000013130
     CP-SCF ITERATION   6:      0.000000004829

                                                 ... done   (      7.3 sec)
Forming perturbed density Hessian contributions  ... done   (      0.0 sec)
Making the perturbed densities                   ... done   (      0.0 sec)
2nd integral derivative contribs                 ... done   (      3.9 sec)
Exchange-correlation Hessian                     ... done   (      2.5 sec)
Dipol derivatives                                ... done   (      0.3 sec)

Total SCF Hessian time: 0 days 0 hours 0 min 20 sec 

Writing the Hessian file to the disk             ... done


Maximum memory used throughout the entire calculation: 100.8 MB
Warning: T+R mode no 3 is zero 

-----------------------
VIBRATIONAL FREQUENCIES
-----------------------

Scaling factor for frequencies =  1.000000000  (already applied!)

   0:         0.00 cm**-1
   1:         0.00 cm**-1
   2:         0.00 cm**-1
   3:         0.00 cm**-1
   4:         0.00 cm**-1
   5:       652.99 cm**-1
   6:       652.99 cm**-1
   7:      1388.26 cm**-1
   8:      2470.07 cm**-1


------------
NORMAL MODES
------------

These modes are the Cartesian displacements weighted by the diagonal matrix
M(i,i)=1/sqrt(m[i]) where m[i] is the mass of the displaced atom
Thus, these vectors are normalized but *not* orthogonal

                  0          1          2          3          4          5    
      0       0.000000   0.000000   0.000000   0.000000   0.000000   0.000000
      1       0.000000   0.000000   0.000000   0.000000   0.000000   0.299310
      2       0.000000   0.000000   0.000000   0.000000   0.000000  -0.142610
      3       0.000000   0.000000   0.000000   0.000000   0.000000  -0.000000
      4       0.000000   0.000000   0.000000   0.000000   0.000000  -0.797378
      5       0.000000   0.000000   0.000000   0.000000   0.000000   0.379922
      6       0.000000   0.000000   0.000000   0.000000   0.000000  -0.000000
      7       0.000000   0.000000   0.000000   0.000000   0.000000   0.299310
      8       0.000000   0.000000   0.000000   0.000000   0.000000  -0.142610
                   6          7          8    
      0      -0.000000  -0.707107  -0.331548
      1      -0.142610   0.000000   0.000000
      2      -0.299310   0.000000   0.000000
      3       0.000000   0.000000   0.883262
      4       0.379922  -0.000000  -0.000000
      5       0.797378  -0.000000  -0.000000
      6       0.000000   0.707107  -0.331548
      7      -0.142610   0.000000  -0.000000
      8      -0.299310   0.000000  -0.000000


-----------
IR SPECTRUM
-----------

 Mode    freq (cm**-1)   T**2         TX         TY         TZ
-------------------------------------------------------------------
   5:       652.99   32.736789  (  0.000000  -5.165264   2.461064)
   6:       652.99   32.736789  ( -0.000000   2.461064   5.165264)
   7:      1388.26    0.000000  (  0.000000  -0.000000  -0.000000)
   8:      2470.07  612.036449  ( 24.739370   0.000000   0.000000)

The first frequency considered to be a vibration is 5
The total number of vibrations considered is 4


--------------------------
THERMOCHEMISTRY AT 298.15K
--------------------------

Temperature         ... 298.15 K
Pressure            ... 1.00 atm
Total Mass          ... 44.01 AMU
The molecule is recognized as being linear

Throughout the following assumptions are being made:
  (1) The electronic state is orbitally nondegenerate
  (2) There are no thermally accessible electronically excited states
  (3) Hindered rotations indicated by low frequency modes are not
      treated as such but are treated as vibrations and this may
      cause some error
  (4) All equations used are the standard statistical mechanics
      equations for an ideal gas
  (5) All vibrations are strictly harmonic

freq.     652.99  E(vib)   ...       0.08 
freq.     652.99  E(vib)   ...       0.08 
freq.    1388.26  E(vib)   ...       0.00 
freq.    2470.07  E(vib)   ...       0.00 

------------
INNER ENERGY
------------

The inner energy is: U= E(el) + E(ZPE) + E(vib) + E(rot) + E(trans)
    E(el)   - is the total energy from the electronic structure calculation
              = E(kin-el) + E(nuc-el) + E(el-el) + E(nuc-nuc)
    E(ZPE)  - the the zero temperature vibrational energy from the frequency calculation
    E(vib)  - the the finite temperature correction to E(ZPE) due to population
              of excited vibrational states
    E(rot)  - is the rotational thermal energy
    E(trans)- is the translational thermal energy

Summary of contributions to the inner energy U:
Electronic energy                ...   -188.36036039 Eh
Zero point energy                ...      0.01176517 Eh       7.38 kcal/mol
Thermal vibrational correction   ...      0.00027399 Eh       0.17 kcal/mol
Thermal rotational correction    ...      0.00094418 Eh       0.59 kcal/mol
Thermal translational correction ...      0.00141627 Eh       0.89 kcal/mol
-----------------------------------------------------------------------
Total thermal energy                   -188.34596078 Eh


Summary of corrections to the electronic energy:
(perhaps to be used in another calculation)
Total thermal correction                  0.00263444 Eh       1.65 kcal/mol
Non-thermal (ZPE) correction              0.01176517 Eh       7.38 kcal/mol
-----------------------------------------------------------------------
Total correction                          0.01439961 Eh       9.04 kcal/mol


--------
ENTHALPY
--------

The enthalpy is H = U + kB*T
                kB is Boltzmann's constant
Total free energy                 ...   -188.34596078 Eh 
Thermal Enthalpy correction       ...      0.00094421 Eh       0.59 kcal/mol
-----------------------------------------------------------------------
Total Enthalpy                    ...   -188.34501657 Eh


Note: Rotational entropy computed according to Herzberg 
Infrared and Raman Spectra, Chapter V,1, Van Nostrand Reinhold, 1945 
Point Group:  Dinfh, Symmetry Number:   2  
Rotational constants in cm-1:     0.000000     0.389286     0.389286 

Vibrational entropy computed according to the QRRHO of S. Grimme
Chem.Eur.J. 2012 18 9955


-------
ENTROPY
-------

The entropy contributions are T*S = T*(S(el)+S(vib)+S(rot)+S(trans))
     S(el)   - electronic entropy
     S(vib)  - vibrational entropy
     S(rot)  - rotational entropy
     S(trans)- translational entropy
The entropies will be listed as mutliplied by the temperature to get
units of energy

Electronic entropy                ...      0.00000000 Eh      0.00 kcal/mol
Vibrational entropy               ...      0.00035810 Eh      0.22 kcal/mol
Rotational entropy                ...      0.00621658 Eh      3.90 kcal/mol
Translational entropy             ...      0.01770880 Eh     11.11 kcal/mol
-----------------------------------------------------------------------
Final entropy term                ...      0.02428348 Eh     15.24 kcal/mol

In case the symmetry of your molecule has not been determined correctly
or in case you have a reason to use a different symmetry number we print 
out the resulting rotational entropy values for sn=1,12 :
 --------------------------------------------------------
|  sn= 1 | S(rot)=      -0.00720400 Eh     -4.52 kcal/mol|
|  sn= 2 | S(rot)=      -0.00785846 Eh     -4.93 kcal/mol|
|  sn= 3 | S(rot)=      -0.00824129 Eh     -5.17 kcal/mol|
|  sn= 4 | S(rot)=      -0.00851291 Eh     -5.34 kcal/mol|
|  sn= 5 | S(rot)=      -0.00872360 Eh     -5.47 kcal/mol|
|  sn= 6 | S(rot)=      -0.00889575 Eh     -5.58 kcal/mol|
|  sn= 7 | S(rot)=      -0.00904129 Eh     -5.67 kcal/mol|
|  sn= 8 | S(rot)=      -0.00916737 Eh     -5.75 kcal/mol|
|  sn= 9 | S(rot)=      -0.00927858 Eh     -5.82 kcal/mol|
|  sn=10 | S(rot)=      -0.00937806 Eh     -5.88 kcal/mol|
|  sn=11 | S(rot)=      -0.00946805 Eh     -5.94 kcal/mol|
|  sn=12 | S(rot)=      -0.00955020 Eh     -5.99 kcal/mol|
 --------------------------------------------------------


-------------------
GIBBS FREE ENERGY
-------------------

The Gibbs free energy is G = H - T*S

Total enthalpy                    ...   -188.34501657 Eh 
Total entropy correction          ...     -0.02428348 Eh    -15.24 kcal/mol
-----------------------------------------------------------------------
Final Gibbs free energy         ...   -188.36930005 Eh

For completeness - the Gibbs free energy minus the electronic energy
G-E(el)                           ...     -0.00893966 Eh     -5.61 kcal/mol


Timings for individual modules:

Sum of individual times         ...       52.778 sec (=   0.880 min)
GTO integral calculation        ...        3.850 sec (=   0.064 min)   7.3 %
SCF iterations                  ...       21.421 sec (=   0.357 min)  40.6 %
SCF Gradient evaluation         ...        5.827 sec (=   0.097 min)  11.0 %
Geometry relaxation             ...        0.711 sec (=   0.012 min)   1.3 %
Analytical frequency calculation...       20.969 sec (=   0.349 min)  39.7 %
                             ****ORCA TERMINATED NORMALLY****
TOTAL RUN TIME: 0 days 0 hours 0 minutes 53 seconds 888 msec
